 Entering Gaussian System, Link 0=g16
 Input=nh3_nh3_linear_mp2_avtz_rab_aahb_opts_4.gjf
 Output=nh3_nh3_linear_mp2_avtz_rab_aahb_opts_4.log
 Initial command:
 /sw/contrib/chem-src/g16/c01/g16/l1.exe "/scr/Gau-58590.inp" -scrdir="/scr/"
 Entering Link 1 = /sw/contrib/chem-src/g16/c01/g16/l1.exe PID=     58595.
  
 Copyright (c) 1988-2019, Gaussian, Inc.  All Rights Reserved.
  
 This is part of the Gaussian(R) 16 program.  It is based on
 the Gaussian(R) 09 system (copyright 2009, Gaussian, Inc.),
 the Gaussian(R) 03 system (copyright 2003, Gaussian, Inc.),
 the Gaussian(R) 98 system (copyright 1998, Gaussian, Inc.),
 the Gaussian(R) 94 system (copyright 1995, Gaussian, Inc.),
 the Gaussian 92(TM) system (copyright 1992, Gaussian, Inc.),
 the Gaussian 90(TM) system (copyright 1990, Gaussian, Inc.),
 the Gaussian 88(TM) system (copyright 1988, Gaussian, Inc.),
 the Gaussian 86(TM) system (copyright 1986, Carnegie Mellon
 University), and the Gaussian 82(TM) system (copyright 1983,
 Carnegie Mellon University). Gaussian is a federally registered
 trademark of Gaussian, Inc.
  
 This software contains proprietary and confidential information,
 including trade secrets, belonging to Gaussian, Inc.
  
 This software is provided under written license and may be
 used, copied, transmitted, or stored only in accord with that
 written license.
  
 The following legend is applicable only to US Government
 contracts under FAR:
  
                    RESTRICTED RIGHTS LEGEND
  
 Use, reproduction and disclosure by the US Government is
 subject to restrictions as set forth in subparagraphs (a)
 and (c) of the Commercial Computer Software - Restricted
 Rights clause in FAR 52.227-19.
  
 Gaussian, Inc.
 340 Quinnipiac St., Bldg. 40, Wallingford CT 06492
  
  
 ---------------------------------------------------------------
 Warning -- This program may not be used in any manner that
 competes with the business of Gaussian, Inc. or will provide
 assistance to any competitor of Gaussian, Inc.  The licensee
 of this program is prohibited from giving any competitor of
 Gaussian, Inc. access to this program.  By using this program,
 the user acknowledges that Gaussian, Inc. is engaged in the
 business of creating and licensing software in the field of
 computational chemistry and represents and warrants to the
 licensee that it is not a competitor of Gaussian, Inc. and that
 it will not use this program in any manner prohibited above.
 ---------------------------------------------------------------
  

 Cite this work as:
 Gaussian 16, Revision C.01,
 M. J. Frisch, G. W. Trucks, H. B. Schlegel, G. E. Scuseria, 
 M. A. Robb, J. R. Cheeseman, G. Scalmani, V. Barone, 
 G. A. Petersson, H. Nakatsuji, X. Li, M. Caricato, A. V. Marenich, 
 J. Bloino, B. G. Janesko, R. Gomperts, B. Mennucci, H. P. Hratchian, 
 J. V. Ortiz, A. F. Izmaylov, J. L. Sonnenberg, D. Williams-Young, 
 F. Ding, F. Lipparini, F. Egidi, J. Goings, B. Peng, A. Petrone, 
 T. Henderson, D. Ranasinghe, V. G. Zakrzewski, J. Gao, N. Rega, 
 G. Zheng, W. Liang, M. Hada, M. Ehara, K. Toyota, R. Fukuda, 
 J. Hasegawa, M. Ishida, T. Nakajima, Y. Honda, O. Kitao, H. Nakai, 
 T. Vreven, K. Throssell, J. A. Montgomery, Jr., J. E. Peralta, 
 F. Ogliaro, M. J. Bearpark, J. J. Heyd, E. N. Brothers, K. N. Kudin, 
 V. N. Staroverov, T. A. Keith, R. Kobayashi, J. Normand, 
 K. Raghavachari, A. P. Rendell, J. C. Burant, S. S. Iyengar, 
 J. Tomasi, M. Cossi, J. M. Millam, M. Klene, C. Adamo, R. Cammi, 
 J. W. Ochterski, R. L. Martin, K. Morokuma, O. Farkas, 
 J. B. Foresman, and D. J. Fox, Gaussian, Inc., Wallingford CT, 2019.
 
 ******************************************
 Gaussian 16:  EM64L-G16RevC.01  3-Jul-2019
                23-May-2024 
 ******************************************
 %nprocshared=40
 Will use up to   40 processors via shared memory.
 %mem=50gb
 ----------------------------------------------------------------------
 # mp2/aug-cc-pVTZ Pop=ChelpG opt=(z-matrix,MaxCycles=10000,CalcAll) fr
 eq
 ----------------------------------------------------------------------
 1/6=10000,10=4,18=40,38=1/1,3;
 2/12=2,17=6,18=5,29=3,40=1/2;
 3/5=16,6=1,7=10,11=9,25=1,30=1,71=2,140=1/1,2,3;
 4//1;
 5/5=2,38=5/2;
 8/6=3,8=1,10=1,19=11,30=-1/1;
 9/15=3,16=-3/6;
 11/6=1,8=1,15=11,17=12,24=-1,27=1,28=-2,29=300,32=6,42=3/1,2,10;
 10/6=2,21=1/2;
 8/6=4,8=1,10=1,19=11,30=-1/11,4;
 10/5=1,20=4/2;
 11/12=2,14=11,16=1,17=2,28=-2,42=3,76=2/2,10,12;
 6/7=2,8=2,9=2,10=2,15=8,18=1,20=3/1,2;
 7/10=1,12=2,25=1,44=2/1,2,3,16;
 1/6=10000,10=4,18=40/3(3);
 2/29=3/2;
 7/8=1,9=1,25=1,44=-1/16;
 99//99;
 2/29=3/2;
 3/5=16,6=1,7=10,11=9,25=1,30=1,71=2,140=1/1,2,3;
 4/5=5,16=3,69=1/1;
 5/5=2,38=5/2;
 8/6=3,8=1,10=1,19=11,30=-1/1;
 9/15=3,16=-3/6;
 11/6=1,8=1,15=11,17=12,24=-1,27=1,28=-2,29=300,32=6,42=3/1,2,10;
 10/6=2,21=1/2;
 8/6=4,8=1,10=1,19=11,30=-1/11,4;
 10/5=1,20=4/2;
 11/12=2,14=11,16=1,17=2,28=-2,42=3,76=2/2,10,12;
 7/10=1,12=2,25=1,44=2/1,2,3,16;
 1/6=10000,10=4,18=40/3(-12);
 2/29=3/2;
 6/7=2,8=2,9=2,10=2,15=8,18=1,20=3/1,2;
 7/8=1,9=1,25=1,44=-1/16;
 99//99;
 ------------------------------------
 Title: Rab = 3.7147 Aahb = 12.500000
 ------------------------------------
 Symbolic Z-matrix:
 Charge =  0 Multiplicity = 1
 N1
 X2                   1     1. 
 H3                   1    Rah      2    Aahb
 N4                   1    Rab      2     90.      3     0.       0
 H5(Iso=2)            4    R1       1    A1       2     180.     0
 H6(Iso=2)            4    R2       5    A2       1    D1       0
 H7(Iso=2)            4    R2       5    A2       1    -D1      0
 H8(Iso=2)            1    R3       3    A3       5    D2       0
 H9(Iso=2)            1    R3       3    A3       5    -D2      0
       Variables:
  R1                    1.0127                   
  R2                    1.0125                   
  R3                    1.012                    
  A1                  104.9325                   
  A2                  106.7168                   
  A3                  107.0911                   
  D1                  123.101                    
  D2                  123.0327                   
  Rah                   1.0168                   
       Constants:
  Rab                   3.7147                   
  Aahb                102.5                      
 

 GradGradGradGradGradGradGradGradGradGradGradGradGradGradGradGradGradGrad
 Berny optimization.
 Initialization pass.
                       ----------------------------
                       !    Initial Parameters    !
                       ! (Angstroms and Degrees)  !
 ----------------------                            ----------------------
 !      Name          Value   Derivative information (Atomic Units)     !
 ------------------------------------------------------------------------
 !       R1          1.0127   calculate D2E/DX2 analytically            !
 !       R2          1.0125   calculate D2E/DX2 analytically            !
 !       R3          1.012    calculate D2E/DX2 analytically            !
 !       A1        104.9325   calculate D2E/DX2 analytically            !
 !       A2        106.7168   calculate D2E/DX2 analytically            !
 !       A3        107.0911   calculate D2E/DX2 analytically            !
 !       D1        123.101    calculate D2E/DX2 analytically            !
 !       D2        123.0327   calculate D2E/DX2 analytically            !
 !       Rah         1.0168   calculate D2E/DX2 analytically            !
 !       Rab         3.7147   frozen, calculate D2E/DX2 analytically    !
 !      Aahb       102.5      frozen, calculate D2E/DX2 analytically    !
 ------------------------------------------------------------------------
 Trust Radius=3.00D-01 FncErr=1.00D-07 GrdErr=1.00D-07 EigMax=2.50D+02 EigMin=1.00D-04
 Number of steps in this run=    100 maximum allowed number of steps=    100.
 GradGradGradGradGradGradGradGradGradGradGradGradGradGradGradGradGradGrad

 ---------------------------------------------------------------------------------------------------
                            Z-MATRIX (ANGSTROMS AND DEGREES)
   CD    Cent   Atom    N1       Length/X        N2       Alpha/Y        N3        Beta/Z          J
 ---------------------------------------------------------------------------------------------------
      1      1  N 
      2         X        1   1.000000(     1)
      3      2  H        1   1.016800(     2)      2  102.500(     9)
      4      3  N        1   3.714700(     3)      2   90.000(    10)      3    0.000(    16)      0
      5      4  H        4   1.012700(     4)      1  104.933(    11)      2  180.000(    17)      0
      6      5  H        4   1.012500(     5)      5  106.717(    12)      1  123.101(    18)      0
      7      6  H        4   1.012500(     6)      5  106.717(    13)      1 -123.101(    19)      0
      8      7  H        1   1.012000(     7)      3  107.091(    14)      5  123.033(    20)      0
      9      8  H        1   1.012000(     8)      3  107.091(    15)      5 -123.033(    21)      0
 ---------------------------------------------------------------------------------------------------
                         Z-Matrix orientation:                         
 ---------------------------------------------------------------------
 Center     Atomic      Atomic             Coordinates (Angstroms)
 Number     Number       Type             X           Y           Z
 ---------------------------------------------------------------------
      1          7           0        0.000000    0.000000    0.000000
      2         -1           0        0.000000    0.000000    1.000000
      3          1           0        0.992698    0.000000   -0.220076
      4          7           0        3.714700    0.000000    0.000000
      5          1           0        3.975653   -0.000000   -0.978501
      6          1           0        4.151345   -0.812335    0.417863
      7          1           0        4.151345    0.812335    0.417863
      8          1           0       -0.176241   -0.810953    0.579171
      9          1           0       -0.176241    0.810953    0.579171
 ---------------------------------------------------------------------
                    Distance matrix (angstroms):
                    1          2          3          4          5
     1  N    0.000000
     2  X    1.000000   0.000000
     3  H    1.016800   1.572906   0.000000
     4  N    3.714700   3.846946   2.730884   0.000000
     5  H    4.094299   4.440753   3.077862   1.012700   0.000000
     6  H    4.250666   4.269946   3.323237   1.012500   1.624989
     7  H    4.250666   4.269946   3.323237   1.012500   1.624989
     8  H    1.012000   0.930485   1.631826   4.016529   4.508016
     9  H    1.012000   0.930485   1.631826   4.016529   4.508016
                    6          7          8          9
     6  H    0.000000
     7  H    1.624670   0.000000
     8  H    4.330591   4.624833   0.000000
     9  H    4.624833   4.330591   1.621905   0.000000
 Stoichiometry    H6N2
 Framework group  CS[SG(H2N2),X(H4)]
 Deg. of freedom    11
 Full point group                 CS      NOp   2
 Largest Abelian subgroup         CS      NOp   2
 Largest concise Abelian subgroup CS      NOp   2
                         Standard orientation:                         
 ---------------------------------------------------------------------
 Center     Atomic      Atomic             Coordinates (Angstroms)
 Number     Number       Type             X           Y           Z
 ---------------------------------------------------------------------
      1          7           0       -0.039775    1.946073    0.000000
      2          1           0       -0.259850    0.953375    0.000000
      3          7           0       -0.039775   -1.768627   -0.000000
      4          1           0       -1.018276   -2.029580   -0.000000
      5          1           0        0.378089   -2.205272    0.812335
      6          1           0        0.378089   -2.205272   -0.812335
      7          1           0        0.539397    2.122314    0.810953
      8          1           0        0.539397    2.122314   -0.810953
 ---------------------------------------------------------------------
 Rotational constants (GHZ):          55.7188664           3.4215789           3.3861724
 Standard basis: Aug-CC-pVTZ (5D, 7F)
 There are   160 symmetry adapted cartesian basis functions of A'  symmetry.
 There are   100 symmetry adapted cartesian basis functions of A"  symmetry.
 There are   138 symmetry adapted basis functions of A'  symmetry.
 There are    92 symmetry adapted basis functions of A"  symmetry.
   230 basis functions,   306 primitive gaussians,   260 cartesian basis functions
    10 alpha electrons       10 beta electrons
       nuclear repulsion energy        37.9175768957 Hartrees.
 NAtoms=    8 NActive=    8 NUniq=    6 SFac= 1.78D+00 NAtFMM=   60 NAOKFM=F Big=F
 Integral buffers will be    131072 words long.
 Raffenetti 1 integral format.
 Two-electron integral symmetry is turned on.
 One-electron integrals computed using PRISM.
 NBasis=   230 RedAO= T EigKep=  1.48D-04  NBF=   138    92
 NBsUse=   230 1.00D-06 EigRej= -1.00D+00 NBFU=   138    92
 ExpMin= 2.53D-02 ExpMax= 1.14D+04 ExpMxC= 3.89D+02 IAcc=3 IRadAn=         5 AccDes= 0.00D+00
 Harris functional with IExCor=  205 and IRadAn=       5 diagonalized for initial guess.
 HarFok:  IExCor=  205 AccDes= 0.00D+00 IRadAn=         5 IDoV= 1 UseB2=F ITyADJ=14
 ICtDFT=  3500011 ScaDFX=  1.000000  1.000000  1.000000  1.000000
 FoFCou: FMM=F IPFlag=           0 FMFlag=      100000 FMFlg1=           0
         NFxFlg=           0 DoJE=T BraDBF=F KetDBF=T FulRan=T
         wScrn=  0.000000 ICntrl=       500 IOpCl=  0 I1Cent=   200000004 NGrid=           0
         NMat0=    1 NMatS0=      1 NMatT0=    0 NMatD0=    1 NMtDS0=    0 NMtDT0=    0
 Petite list used in FoFCou.
 Initial guess orbital symmetries:
       Occupied  (A') (A') (A') (A') (A') (A") (A") (A') (A') (A')
       Virtual   (A') (A') (A") (A') (A") (A') (A') (A') (A") (A')
                 (A') (A') (A") (A") (A') (A') (A') (A") (A") (A')
                 (A') (A") (A') (A') (A') (A') (A") (A") (A') (A")
                 (A') (A") (A') (A") (A') (A") (A') (A') (A") (A')
                 (A") (A') (A') (A") (A') (A') (A") (A') (A') (A')
                 (A') (A") (A') (A") (A') (A') (A') (A") (A') (A")
                 (A') (A") (A") (A') (A") (A') (A") (A') (A') (A")
                 (A') (A") (A') (A") (A") (A') (A") (A') (A") (A')
                 (A") (A') (A") (A') (A') (A") (A') (A') (A') (A")
                 (A') (A") (A') (A") (A') (A') (A') (A') (A") (A')
                 (A") (A") (A') (A") (A') (A") (A') (A') (A") (A')
                 (A') (A') (A") (A') (A") (A") (A') (A') (A") (A')
                 (A') (A") (A") (A') (A") (A') (A") (A') (A") (A')
                 (A') (A') (A") (A') (A') (A') (A") (A') (A") (A')
                 (A') (A') (A") (A") (A') (A') (A") (A") (A") (A')
                 (A") (A') (A") (A') (A") (A") (A") (A') (A") (A')
                 (A') (A") (A') (A') (A") (A') (A") (A') (A') (A')
                 (A') (A') (A") (A') (A") (A') (A') (A") (A') (A')
                 (A") (A") (A') (A") (A') (A") (A') (A") (A') (A')
                 (A") (A') (A") (A') (A') (A') (A") (A') (A') (A")
                 (A') (A') (A") (A') (A") (A') (A") (A") (A') (A')
                 (A') (A") (A') (A") (A') (A") (A") (A') (A') (A')
 The electronic state of the initial guess is 1-A'.
 Keep R1 ints in memory in symmetry-blocked form, NReq=529702667.
 Requested convergence on RMS density matrix=1.00D-08 within 128 cycles.
 Requested convergence on MAX density matrix=1.00D-06.
 Requested convergence on             energy=1.00D-06.
 No special actions if energy rises.
 SCF Done:  E(RHF) =  -112.442838071     A.U. after   10 cycles
            NFock= 10  Conv=0.63D-08     -V/T= 2.0017
 ExpMin= 2.53D-02 ExpMax= 1.14D+04 ExpMxC= 3.89D+02 IAcc=3 IRadAn=         5 AccDes= 0.00D+00
 HarFok:  IExCor=  205 AccDes= 0.00D+00 IRadAn=         5 IDoV=-2 UseB2=F ITyADJ=14
 ICtDFT= 12500011 ScaDFX=  1.000000  1.000000  1.000000  1.000000
 Range of M.O.s used for correlation:     3   230
 NBasis=   230 NAE=    10 NBE=    10 NFC=     2 NFV=     0
 NROrb=    228 NOA=     8 NOB=     8 NVA=   220 NVB=   220

 **** Warning!!: The largest alpha MO coefficient is  0.21139960D+02

 Disk-based method using ON**2 memory for  8 occupieds at a time.
 Permanent disk used for amplitudes=     5924050 words.
 Estimated scratch disk usage=   173977696 words.
 Actual    scratch disk usage=   168508512 words.
 JobTyp=1 Pass  1:  I=   3 to  10 NPSUse= 40 ParTrn=T ParDer=T DoDerP=T.
 (rs|ai) integrals will be sorted in core.
 Spin components of T(2) and E(2):
     alpha-alpha T2 =       0.1592186739D-01 E2=     -0.5341848690D-01
     alpha-beta  T2 =       0.1023101997D+00 E2=     -0.3748827900D+00
     beta-beta   T2 =       0.1592186739D-01 E2=     -0.5341848690D-01
 ANorm=    0.1064966635D+01
 E2 =    -0.4817197638D+00 EUMP2 =    -0.11292455783475D+03
 G2DrvN: will do     9 centers at a time, making    1 passes.
 Calling FoFCou, ICntrl=  3107 FMM=F I1Cent=   0 AccDes= 0.00D+00.
 End of G2Drv F.D. properties file   721 does not exist.
 End of G2Drv F.D. properties file   722 does not exist.
 End of G2Drv F.D. properties file   788 does not exist.
          IDoAtm=11111111
          Differentiating once with respect to electric field.
                with respect to dipole field.
          Differentiating once with respect to nuclear coordinates.
 Keep R1 ints in memory in symmetry-blocked form, NReq=529704239.
          There are    27 degrees of freedom in the 1st order CPHF.  IDoFFX=6 NUNeed=    27.
     24 vectors produced by pass  0 Test12= 8.15D-15 3.70D-09 XBig12= 6.17D+00 7.60D-01.
 AX will form    24 AO Fock derivatives at one time.
     24 vectors produced by pass  1 Test12= 8.15D-15 3.70D-09 XBig12= 2.11D-01 1.31D-01.
     24 vectors produced by pass  2 Test12= 8.15D-15 3.70D-09 XBig12= 4.34D-03 1.94D-02.
     24 vectors produced by pass  3 Test12= 8.15D-15 3.70D-09 XBig12= 5.34D-05 1.17D-03.
     24 vectors produced by pass  4 Test12= 8.15D-15 3.70D-09 XBig12= 5.28D-07 1.50D-04.
     24 vectors produced by pass  5 Test12= 8.15D-15 3.70D-09 XBig12= 4.00D-09 1.41D-05.
     18 vectors produced by pass  6 Test12= 8.15D-15 3.70D-09 XBig12= 2.05D-11 7.11D-07.
      3 vectors produced by pass  7 Test12= 8.15D-15 3.70D-09 XBig12= 1.10D-13 6.16D-08.
      1 vectors produced by pass  8 Test12= 8.15D-15 3.70D-09 XBig12= 5.41D-16 4.13D-09.
 InvSVY:  IOpt=1 It=  1 EMax= 4.44D-16
 Solved reduced A of dimension   166 with    27 vectors.
 End of Minotr F.D. properties file   721 does not exist.
 End of Minotr F.D. properties file   722 does not exist.
 End of Minotr F.D. properties file   788 does not exist.
 MDV=  6710886400.
 Form MO integral derivatives with frozen-active canonical formalism.
 Discarding MO integrals.
 Reordered first order wavefunction length =      9680000
 In DefCFB: NBatch=  1 ICI= 10 ICA=220 LFMax= 74
            Large arrays: LIAPS=   526240000 LIARS=   220220000 words.
 Semi-Direct transformation.
 ModeAB=           4 MOrb=            10 LenV=    6709464925
 LASXX=     59022085 LTotXX=    59022085 LenRXX=   118805160
 LTotAB=    59783075 MaxLAS=    52955200 LenRXY=           0
 NonZer=   177827245 LenScr=   267787264 LnRSAI=    52955200
 LnScr1=    80211456 LExtra=           0 Total=    519759080
 MaxDsk=          -1 SrtSym=           T ITran=            4
 JobTyp=0 Pass  1:  I=   1 to  10.
 (rs|ai) integrals will be sorted in core.
 Spin components of T(2) and E(2):
     alpha-alpha T2 =       0.1592186739D-01 E2=     -0.5341848690D-01
     alpha-beta  T2 =       0.1023101997D+00 E2=     -0.3748827900D+00
     beta-beta   T2 =       0.1592186739D-01 E2=     -0.5341848690D-01
 ANorm=    0.1506090259D+01
 E2 =    -0.4817197638D+00 EUMP2 =    -0.11292455783475D+03
          IDoAtm=11111111
          Differentiating once with respect to electric field.
                with respect to dipole field.
          Differentiating once with respect to nuclear coordinates.
          There are     1 degrees of freedom in the 1st order CPHF.  IDoFFX=0 NUNeed=     1.
 LinEq1:  Iter=  0 NonCon=     1 RMS=2.42D-03 Max=2.89D-02 NDo=     1
 LinEq1:  Iter=  1 NonCon=     1 RMS=7.60D-04 Max=7.93D-03 NDo=     1
 LinEq1:  Iter=  2 NonCon=     1 RMS=2.85D-04 Max=3.38D-03 NDo=     1
 LinEq1:  Iter=  3 NonCon=     1 RMS=3.14D-05 Max=2.14D-04 NDo=     1
 LinEq1:  Iter=  4 NonCon=     1 RMS=5.33D-06 Max=5.37D-05 NDo=     1
 LinEq1:  Iter=  5 NonCon=     1 RMS=1.09D-06 Max=1.10D-05 NDo=     1
 LinEq1:  Iter=  6 NonCon=     1 RMS=2.22D-07 Max=2.30D-06 NDo=     1
 LinEq1:  Iter=  7 NonCon=     1 RMS=8.77D-08 Max=8.03D-07 NDo=     1
 LinEq1:  Iter=  8 NonCon=     1 RMS=1.80D-08 Max=1.71D-07 NDo=     1
 LinEq1:  Iter=  9 NonCon=     1 RMS=3.28D-09 Max=2.58D-08 NDo=     1
 LinEq1:  Iter= 10 NonCon=     1 RMS=5.00D-10 Max=3.75D-09 NDo=     1
 LinEq1:  Iter= 11 NonCon=     0 RMS=6.15D-11 Max=6.50D-10 NDo=     1
 Linear equations converged to 1.000D-10 1.000D-09 after    11 iterations.
 End of Minotr F.D. properties file   721 does not exist.
 End of Minotr F.D. properties file   722 does not exist.
 End of Minotr F.D. properties file   788 does not exist.
 Symmetrizing basis deriv contribution to polar:
 IMax=3 JMax=2 DiffMx= 0.00D+00
 G2DrvN: will do     9 centers at a time, making    1 passes.
 Calling FoFCou, ICntrl=  3107 FMM=F I1Cent=   0 AccDes= 0.00D+00.
 End of G2Drv F.D. properties file   721 does not exist.
 End of G2Drv F.D. properties file   722 does not exist.
 End of G2Drv F.D. properties file   788 does not exist.
 R2 and R3 integrals will be kept in memory, NReq=  1160168490.
 DD1Dir will call FoFMem   1 times, MxPair=       110
 NAB=    55 NAA=     0 NBB=     0.
 Discarding MO integrals.

 **********************************************************************

            Population analysis using the SCF Density.

 **********************************************************************

 Orbital symmetries:
       Occupied  (A') (A') (A') (A') (A') (A") (A") (A') (A') (A')
       Virtual   (A') (A") (A') (A') (A") (A') (A') (A') (A") (A')
                 (A') (A') (A") (A') (A') (A") (A") (A') (A") (A')
                 (A') (A") (A') (A") (A') (A') (A") (A') (A') (A")
                 (A") (A') (A') (A") (A') (A') (A") (A') (A") (A")
                 (A') (A') (A") (A') (A') (A') (A") (A') (A') (A')
                 (A") (A') (A") (A') (A') (A') (A") (A") (A') (A")
                 (A') (A") (A') (A") (A') (A') (A") (A') (A") (A')
                 (A') (A") (A") (A') (A") (A') (A") (A') (A") (A')
                 (A") (A") (A') (A') (A") (A') (A') (A') (A') (A")
                 (A") (A') (A') (A") (A') (A') (A') (A') (A") (A")
                 (A') (A") (A") (A') (A') (A") (A') (A') (A") (A')
                 (A') (A') (A") (A') (A") (A") (A') (A") (A') (A')
                 (A') (A") (A") (A") (A') (A") (A') (A') (A") (A')
                 (A') (A') (A") (A') (A') (A') (A") (A") (A') (A')
                 (A') (A") (A") (A') (A') (A') (A") (A") (A') (A')
                 (A") (A") (A") (A") (A") (A') (A") (A') (A') (A")
                 (A') (A") (A') (A') (A') (A') (A") (A') (A") (A')
                 (A') (A") (A') (A') (A") (A') (A') (A") (A") (A")
                 (A') (A") (A') (A") (A') (A') (A") (A') (A') (A')
                 (A") (A') (A') (A") (A') (A') (A") (A') (A") (A')
                 (A') (A') (A") (A') (A") (A') (A") (A") (A') (A')
                 (A') (A") (A') (A") (A") (A') (A") (A') (A') (A')
 The electronic state is 1-A'.
 Alpha  occ. eigenvalues --  -15.55114 -15.52127  -1.15193  -1.12136  -0.63799
 Alpha  occ. eigenvalues --   -0.63794  -0.60934  -0.60824  -0.44199  -0.40844
 Alpha virt. eigenvalues --    0.02478   0.04319   0.04397   0.04830   0.06302
 Alpha virt. eigenvalues --    0.07311   0.13377   0.13770   0.14979   0.15461
 Alpha virt. eigenvalues --    0.16445   0.16791   0.18483   0.20657   0.21292
 Alpha virt. eigenvalues --    0.21615   0.22359   0.23025   0.23722   0.25719
 Alpha virt. eigenvalues --    0.29616   0.31789   0.33409   0.34724   0.37415
 Alpha virt. eigenvalues --    0.38024   0.38073   0.38962   0.39060   0.39085
 Alpha virt. eigenvalues --    0.40685   0.42147   0.43396   0.45388   0.46186
 Alpha virt. eigenvalues --    0.46693   0.48019   0.50209   0.50459   0.54051
 Alpha virt. eigenvalues --    0.54263   0.57053   0.60144   0.61513   0.62993
 Alpha virt. eigenvalues --    0.64491   0.65873   0.68007   0.77611   0.80615
 Alpha virt. eigenvalues --    0.81323   0.82185   0.82814   0.84819   0.85331
 Alpha virt. eigenvalues --    0.89419   0.89428   0.91766   0.92114   0.92563
 Alpha virt. eigenvalues --    0.92875   0.93791   0.93876   0.98832   0.99085
 Alpha virt. eigenvalues --    1.00880   1.01985   1.03146   1.03654   1.04081
 Alpha virt. eigenvalues --    1.05391   1.06237   1.07663   1.07759   1.11278
 Alpha virt. eigenvalues --    1.11438   1.12837   1.14684   1.15356   1.15834
 Alpha virt. eigenvalues --    1.19222   1.21640   1.23470   1.25139   1.26339
 Alpha virt. eigenvalues --    1.27291   1.28508   1.33416   1.35119   1.35944
 Alpha virt. eigenvalues --    1.37877   1.40222   1.43912   1.45608   1.50820
 Alpha virt. eigenvalues --    1.52765   1.63134   1.72045   1.73547   1.75548
 Alpha virt. eigenvalues --    1.76649   1.78349   1.81173   1.83159   1.86425
 Alpha virt. eigenvalues --    1.88166   1.91911   1.93887   1.95908   1.97220
 Alpha virt. eigenvalues --    2.03092   2.03728   2.04144   2.04660   2.06542
 Alpha virt. eigenvalues --    2.08329   2.09219   2.11481   2.14997   2.22228
 Alpha virt. eigenvalues --    2.32901   2.33501   2.38192   2.38365   2.39639
 Alpha virt. eigenvalues --    2.43193   2.43801   2.44749   2.45972   2.47939
 Alpha virt. eigenvalues --    2.50194   2.53056   2.56576   2.67431   3.40748
 Alpha virt. eigenvalues --    3.48877   3.59332   3.60095   3.60554   3.61797
 Alpha virt. eigenvalues --    3.96764   3.96936   3.99798   4.02217   4.05793
 Alpha virt. eigenvalues --    4.12950   4.15515   4.17639   4.18696   4.19606
 Alpha virt. eigenvalues --    4.20242   4.21019   4.24257   4.24985   4.27223
 Alpha virt. eigenvalues --    4.27955   4.31828   4.33049   4.34788   4.38041
 Alpha virt. eigenvalues --    4.40880   4.41852   4.43236   4.46045   4.52111
 Alpha virt. eigenvalues --    4.53119   4.55180   4.57197   4.57407   4.69904
 Alpha virt. eigenvalues --    4.73776   4.74091   4.75387   4.75889   4.80935
 Alpha virt. eigenvalues --    4.85509   4.93582   4.94173   4.97015   4.97429
 Alpha virt. eigenvalues --    4.98104   5.02772   5.05691   5.06054   5.06654
 Alpha virt. eigenvalues --    5.11743   5.11847   5.12667   5.30287   5.35244
 Alpha virt. eigenvalues --    5.66773   5.67752   5.70997   5.71392   5.74382
 Alpha virt. eigenvalues --    5.79903   5.90617   5.90896   5.93087   5.93486
 Alpha virt. eigenvalues --    6.06656   6.12462   6.31879   6.32220   6.33374
 Alpha virt. eigenvalues --    6.34949   6.41447   6.46136   6.64147   6.72424
 Alpha virt. eigenvalues --    6.93410   6.93790   6.96759   6.97068   7.70079
 Alpha virt. eigenvalues --    7.71796   7.72336   7.73483  17.25724  17.77734
          Condensed to atoms (all electrons):
               1          2          3          4          5          6
     1  N    6.686442   0.289293  -0.000200  -0.000116   0.000263   0.000263
     2  H    0.289293   0.394439  -0.004172  -0.000454  -0.000066  -0.000066
     3  N   -0.000200  -0.004172   6.506109   0.355532   0.351260   0.351260
     4  H   -0.000116  -0.000454   0.355532   0.453156   0.003424   0.003424
     5  H    0.000263  -0.000066   0.351260   0.003424   0.461091  -0.002421
     6  H    0.000263  -0.000066   0.351260   0.003424  -0.002421   0.461091
     7  H    0.344749   0.010008  -0.000074  -0.000204   0.000024  -0.000151
     8  H    0.344749   0.010008  -0.000074  -0.000204  -0.000151   0.000024
               7          8
     1  N    0.344749   0.344749
     2  H    0.010008   0.010008
     3  N   -0.000074  -0.000074
     4  H   -0.000204  -0.000204
     5  H    0.000024  -0.000151
     6  H   -0.000151   0.000024
     7  H    0.465133  -0.002226
     8  H   -0.002226   0.465133
 Mulliken charges:
               1
     1  N   -0.665444
     2  H    0.301010
     3  N   -0.559643
     4  H    0.185441
     5  H    0.186577
     6  H    0.186577
     7  H    0.182741
     8  H    0.182741
 Sum of Mulliken charges =  -0.00000
 Mulliken charges with hydrogens summed into heavy atoms:
               1
     1  N    0.001048
     3  N   -0.001048
 APT charges:
               1
     1  N   -0.457519
     2  H    0.181460
     3  N   -0.444499
     4  H    0.149689
     5  H    0.146166
     6  H    0.146166
     7  H    0.139268
     8  H    0.139268
 Sum of APT charges =  -0.00000
 APT charges with hydrogens summed into heavy atoms:
               1
     1  N    0.002478
     3  N   -0.002478
 Electronic spatial extent (au):  <R**2>=            304.8044
 Charge=              0.0000 electrons
 Dipole moment (field-independent basis, Debye):
    X=              1.1202    Y=             -2.8362    Z=             -0.0000  Tot=              3.0494
 Quadrupole moment (field-independent basis, Debye-Ang):
   XX=            -14.4076   YY=            -14.1993   ZZ=            -12.4835
   XY=              3.9775   XZ=             -0.0000   YZ=              0.0000
 Traceless Quadrupole moment (field-independent basis, Debye-Ang):
   XX=             -0.7108   YY=             -0.5025   ZZ=              1.2133
   XY=              3.9775   XZ=             -0.0000   YZ=              0.0000
 Octapole moment (field-independent basis, Debye-Ang**2):
  XXX=             -0.2971  YYY=            -21.7011  ZZZ=             -0.0000  XYY=             10.4176
  XXY=             -4.7256  XXZ=             -0.0000  XZZ=              2.1329  YZZ=             -1.0729
  YYZ=             -0.0000  XYZ=             -0.0000
 Hexadecapole moment (field-independent basis, Debye-Ang**3):
 XXXX=            -21.5598 YYYY=           -359.4099 ZZZZ=            -20.0446 XXXY=              1.0589
 XXXZ=             -0.0000 YYYX=             17.4807 YYYZ=              0.0000 ZZZX=             -0.0000
 ZZZY=              0.0000 XXYY=            -56.6978 XXZZ=             -6.8046 YYZZ=            -47.0649
 XXYZ=             -0.0000 YYXZ=             -0.0000 ZZXY=             -0.4510
 N-N= 3.791757689568D+01 E-N=-3.395916683247D+02  KE= 1.122501291219D+02
 Symmetry A'   KE= 1.070296403586D+02
 Symmetry A"   KE= 5.220488763319D+00
  Exact polarizability:      27.632      -0.475      31.901      -0.000       0.000      26.466
 Approx polarizability:      21.567       0.107      21.266      -0.000      -0.000      21.702
 Breneman (CHELPG) radii used.
 Generate Potential Derived Charges using the Breneman model, NDens= 1.
 Grid spacing= 0.300 Box extension= 2.800
 NStep X,Y,Z=   25     35     26   Total possible points=       22750
 Number of Points to Fit=    8114

 **********************************************************************

            Electrostatic Properties Using The SCF Density.

 **********************************************************************

       Atomic Center    1 is at  -0.039775  1.946073  0.000000
       Atomic Center    2 is at  -0.259850  0.953375  0.000000
       Atomic Center    3 is at  -0.039775 -1.768627 -0.000000
       Atomic Center    4 is at  -1.018276 -2.029580 -0.000000
       Atomic Center    5 is at   0.378089 -2.205272  0.812335
       Atomic Center    6 is at   0.378089 -2.205272 -0.812335
       Atomic Center    7 is at   0.539397  2.122314  0.810953
       Atomic Center    8 is at   0.539397  2.122314 -0.810953
    8114 points will be used for fitting atomic charges
 Fitting point charges to electrostatic potential
 Charges from ESP fit, RMS=   0.00385 RRMS=   0.21506:
 ESP charges:
               1
     1  N   -0.973162
     2  H    0.340270
     3  N   -0.882701
     4  H    0.315062
     5  H    0.289558
     6  H    0.289558
     7  H    0.310707
     8  H    0.310707
 Sum of ESP charges =   0.00000
 ESP charges with hydrogens summed into heavy atoms:
               1
     1  N   -0.011477
     3  N    0.011477
 Charge=   0.00000 Dipole=     1.0506    -2.9107     0.0000 Tot=     3.0945
 -----------------------------------------------------------------

              Electrostatic Properties (Atomic Units)

 -----------------------------------------------------------------
    Center     Electric         -------- Electric Field --------
               Potential          X             Y             Z
 -----------------------------------------------------------------
    1 Atom    -18.395179
    2 Atom     -1.087599
    3 Atom    -18.365746
    4 Atom     -1.057287
    5 Atom     -1.057161
    6 Atom     -1.057161
    7 Atom     -1.085415
    8 Atom     -1.085415
 -----------------------------------------------------------------
 Calling FoFJK, ICntrl=  10100127 FMM=F ISym2X=1 I1Cent= 0 IOpClX= 0 NMat=1 NMatS=1 NMatT=0.
 ***** Axes restored to original set *****
 -------------------------------------------------------------------
 Center     Atomic                   Forces (Hartrees/Bohr)
 Number     Number              X              Y              Z
 -------------------------------------------------------------------
      1        7           0.000926350   -0.000000000   -0.002116567
      2        1          -0.001255409   -0.000000000    0.003250287
      3        7          -0.001079722   -0.000000000   -0.000780706
      4        1           0.000329598   -0.000000000    0.000197639
      5        1          -0.000208435    0.000069146   -0.000065071
      6        1          -0.000208435   -0.000069146   -0.000065071
      7        1           0.000748026   -0.000016584   -0.000210255
      8        1           0.000748026    0.000016584   -0.000210255
 -------------------------------------------------------------------
 Cartesian Forces:  Max     0.003250287 RMS     0.000929031
 -----------------------------------------------------------------------------------------------
                       Internal Coordinate Forces (Hartree/Bohr or radian)
  Cent   Atom   N1       Length/X         N2         Alpha/Y        N3         Beta/Z          J
 -----------------------------------------------------------------------------------------------
      1  N 
         X        1   0.000000(     1)
      2  H        1  -0.001929(     2)      2  -0.004078(     9)
      3  N        1  -0.001167(     3)      2   0.004078(    10)      3  -0.000000(    16)     0
      4  H        4  -0.000106(     4)      1   0.000929(    11)      2   0.000000(    17)     0
      5  H        4  -0.000172(     5)      5   0.000081(    12)      1  -0.000266(    18)     0
      6  H        4  -0.000172(     6)      5   0.000081(    13)      1   0.000266(    19)     0
      7  H        1  -0.000237(     7)      3  -0.001413(    14)      5  -0.000083(    20)     0
      8  H        1  -0.000237(     8)      3  -0.001413(    15)      5   0.000083(    21)     0
 -----------------------------------------------------------------------------------------------
 Internal  Forces:  Max     0.004077855 RMS     0.001440008

 GradGradGradGradGradGradGradGradGradGradGradGradGradGradGradGradGradGrad
 Berny optimization.
 Search for a local minimum.
 Step number   1 out of a maximum of  100
 All quantities printed in internal units (Hartrees-Bohrs-Radians)
 Second derivative matrix not updated -- analytic derivatives used.
 The second derivative matrix:
                          R1        R2        R3        A1        A2
           R1           0.46158
           R2          -0.00696   0.91764
           R3          -0.00004   0.00002   0.91973
           A1           0.00059  -0.00037  -0.00057   0.00381
           A2           0.05197   0.01948  -0.00029   0.00028   0.38747
           A3          -0.00015   0.00028   0.01765  -0.00238  -0.00096
           D1          -0.00808  -0.09698   0.00040  -0.00160   0.23952
           D2           0.00005  -0.00013  -0.09851   0.00086   0.00099
           Rah         -0.00041  -0.00026  -0.00677  -0.00220  -0.00077
           Rab          0.00027   0.00019  -0.00016   0.00081   0.00008
           Aahb        -0.00023   0.00033   0.00163  -0.00379  -0.00001
                          A3        D1        D2        Rah       Rab
           A3           0.37895
           D1           0.00194   0.43344
           D2           0.24484  -0.00010   0.42711
           Rah          0.04780   0.00160  -0.00786   0.44763
           Rab          0.00058  -0.00023   0.00028   0.00068   0.00070
           Aahb         0.00614   0.00094  -0.00158   0.00665  -0.00317
                         Aahb
           Aahb         0.00993
 ITU=  0
     Eigenvalues ---    0.00376   0.14306   0.15527   0.44949   0.46329
     Eigenvalues ---    0.63972   0.64405   0.93804   0.940701000.00000
     Eigenvalues --- 1000.00000
 RFO step:  Lambda=-2.34253435D-04 EMin= 3.75862405D-03
 Linear search not attempted -- first point.
 Variable       Old X    -DE/DX   Delta X   Delta X   Delta X     New X
                                 (Linear)    (Quad)   (Total)
    R1        1.91373  -0.00011   0.00000  -0.00065  -0.00065   1.91308
    R2        1.91335  -0.00034   0.00000  -0.00041  -0.00041   1.91294
    R3        1.91240  -0.00047   0.00000   0.00018   0.00018   1.91259
    A1        1.83142   0.00093   0.00000   0.22212   0.22212   2.05354
    A2        1.86256   0.00016   0.00000   0.00093   0.00093   1.86349
    A3        1.86909  -0.00283   0.00000  -0.00831  -0.00831   1.86078
    D1        2.14852  -0.00053   0.00000  -0.00098  -0.00098   2.14754
    D2        2.14733  -0.00017   0.00000   0.00392   0.00392   2.15125
   Rah        1.92147  -0.00193   0.00000  -0.00226  -0.00226   1.91922
   Rab        7.01977  -0.00117   0.00000   0.00000   0.00000   7.01977
   Aahb       1.78896  -0.00408   0.00000   0.00000   0.00000   1.78896
         Item               Value     Threshold  Converged?
 Maximum Force            0.002825     0.000450     NO 
 RMS     Force            0.001214     0.000300     NO 
 Maximum Displacement     0.222120     0.001800     NO 
 RMS     Displacement     0.067034     0.001200     NO 
 Predicted change in Energy=-1.229170D-04
 GradGradGradGradGradGradGradGradGradGradGradGradGradGradGradGradGradGrad

 ---------------------------------------------------------------------------------------------------
                            Z-MATRIX (ANGSTROMS AND DEGREES)
   CD    Cent   Atom    N1       Length/X        N2       Alpha/Y        N3        Beta/Z          J
 ---------------------------------------------------------------------------------------------------
      1      1  N 
      2         X        1   1.000000(     1)
      3      2  H        1   1.015606(     2)      2  102.500(     9)
      4      3  N        1   3.714700(     3)      2   90.000(    10)      3    0.000(    16)      0
      5      4  H        4   1.012357(     4)      1  117.659(    11)      2  180.000(    17)      0
      6      5  H        4   1.012282(     5)      5  106.770(    12)      1  123.045(    18)      0
      7      6  H        4   1.012282(     6)      5  106.770(    13)      1 -123.045(    19)      0
      8      7  H        1   1.012098(     7)      3  106.615(    14)      5  123.258(    20)      0
      9      8  H        1   1.012098(     8)      3  106.615(    15)      5 -123.258(    21)      0
 ---------------------------------------------------------------------------------------------------
                         Z-Matrix orientation:                         
 ---------------------------------------------------------------------
 Center     Atomic      Atomic             Coordinates (Angstroms)
 Number     Number       Type             X           Y           Z
 ---------------------------------------------------------------------
      1          7           0        0.000000    0.000000    0.000000
      2         -1           0        0.000000    0.000000    1.000000
      3          1           0        0.991532    0.000000   -0.219817
      4          7           0        3.714700    0.000000    0.000000
      5          1           0        4.184645   -0.000000   -0.896671
      6          1           0        4.047234   -0.812451    0.504044
      7          1           0        4.047234    0.812451    0.504044
      8          1           0       -0.397656    0.810994   -0.456619
      9          1           0       -0.397656   -0.810994   -0.456619
 ---------------------------------------------------------------------
                    Distance matrix (angstroms):
                    1          2          3          4          5
     1  N    0.000000
     2  X    1.000000   0.000000
     3  H    1.015606   1.571970   0.000000
     4  N    3.714700   3.846946   2.732025   0.000000
     5  H    4.279635   4.594412   3.264062   1.012357   0.000000
     6  H    4.158634   4.157662   3.243665   1.012282   1.625103
     7  H    4.158634   4.157662   3.243665   1.012282   1.625103
     8  H    1.012098   1.713937   1.625924   4.216359   4.674274
     9  H    1.012098   1.713937   1.625924   4.216359   4.674274
                    6          7          8          9
     6  H    0.000000
     7  H    1.624901   0.000000
     8  H    4.828612   4.547518   0.000000
     9  H    4.547518   4.828612   1.621988   0.000000
 Stoichiometry    H6N2
 Framework group  CS[SG(H2N2),X(H4)]
 Deg. of freedom    11
 Full point group                 CS      NOp   2
 Largest Abelian subgroup         CS      NOp   2
 Largest concise Abelian subgroup CS      NOp   2
                         Standard orientation:                         
 ---------------------------------------------------------------------
 Center     Atomic      Atomic             Coordinates (Angstroms)
 Number     Number       Type             X           Y           Z
 ---------------------------------------------------------------------
      1          7           0        0.051082    1.923912    0.000000
      2          1           0       -0.168735    0.932379    0.000000
      3          7           0        0.051082   -1.790788   -0.000000
      4          1           0       -0.845589   -2.260734   -0.000000
      5          1           0        0.555125   -2.123322    0.812451
      6          1           0        0.555125   -2.123322   -0.812451
      7          1           0       -0.405537    2.321568   -0.810994
      8          1           0       -0.405537    2.321568    0.810994
 ---------------------------------------------------------------------
 Rotational constants (GHZ):          58.7839703           3.3424074           3.2983557
 Standard basis: Aug-CC-pVTZ (5D, 7F)
 There are   160 symmetry adapted cartesian basis functions of A'  symmetry.
 There are   100 symmetry adapted cartesian basis functions of A"  symmetry.
 There are   138 symmetry adapted basis functions of A'  symmetry.
 There are    92 symmetry adapted basis functions of A"  symmetry.
   230 basis functions,   306 primitive gaussians,   260 cartesian basis functions
    10 alpha electrons       10 beta electrons
       nuclear repulsion energy        37.8059545962 Hartrees.
 NAtoms=    8 NActive=    8 NUniq=    6 SFac= 1.78D+00 NAtFMM=   60 NAOKFM=F Big=F
 Integral buffers will be    131072 words long.
 Raffenetti 1 integral format.
 Two-electron integral symmetry is turned on.
 One-electron integrals computed using PRISM.
 NBasis=   230 RedAO= T EigKep=  1.38D-04  NBF=   138    92
 NBsUse=   230 1.00D-06 EigRej= -1.00D+00 NBFU=   138    92
 Initial guess from the checkpoint file:  "/scr/Gau-58595.chk"
 B after Tr=     0.000000   -0.000000    0.000000
         Rot=    0.999318    0.000000    0.000000   -0.036934 Ang=  -4.23 deg.
 Initial guess orbital symmetries:
       Occupied  (A') (A') (A') (A') (A') (A") (A") (A') (A') (A')
       Virtual   (A') (A") (A') (A') (A") (A') (A') (A') (A") (A')
                 (A') (A') (A") (A') (A') (A") (A") (A') (A") (A')
                 (A') (A") (A') (A") (A') (A') (A") (A') (A') (A")
                 (A") (A') (A') (A") (A') (A') (A") (A') (A") (A")
                 (A') (A') (A") (A') (A') (A') (A") (A') (A') (A')
                 (A") (A') (A") (A') (A') (A') (A") (A") (A') (A")
                 (A') (A") (A') (A") (A') (A') (A") (A') (A") (A')
                 (A') (A") (A") (A') (A") (A') (A") (A') (A") (A')
                 (A") (A") (A') (A') (A") (A') (A') (A') (A') (A")
                 (A") (A') (A') (A") (A') (A') (A') (A') (A") (A")
                 (A') (A") (A") (A') (A') (A") (A') (A') (A") (A')
                 (A') (A') (A") (A') (A") (A") (A') (A") (A') (A')
                 (A') (A") (A") (A") (A') (A") (A') (A') (A") (A')
                 (A') (A') (A") (A') (A') (A') (A") (A") (A') (A')
                 (A') (A") (A") (A') (A') (A') (A") (A") (A') (A')
                 (A") (A") (A") (A") (A") (A') (A") (A') (A') (A")
                 (A') (A") (A') (A') (A') (A') (A") (A') (A") (A')
                 (A') (A") (A') (A') (A") (A') (A') (A") (A") (A")
                 (A') (A") (A') (A") (A') (A') (A") (A') (A') (A')
                 (A") (A') (A') (A") (A') (A') (A") (A') (A") (A')
                 (A') (A') (A") (A') (A") (A') (A") (A") (A') (A')
                 (A') (A") (A') (A") (A") (A') (A") (A') (A') (A')
 ExpMin= 2.53D-02 ExpMax= 1.14D+04 ExpMxC= 3.89D+02 IAcc=3 IRadAn=         5 AccDes= 0.00D+00
 Harris functional with IExCor=  205 and IRadAn=       5 diagonalized for initial guess.
 HarFok:  IExCor=  205 AccDes= 0.00D+00 IRadAn=         5 IDoV= 1 UseB2=F ITyADJ=14
 ICtDFT=  3500011 ScaDFX=  1.000000  1.000000  1.000000  1.000000
 FoFCou: FMM=F IPFlag=           0 FMFlag=      100000 FMFlg1=           0
         NFxFlg=           0 DoJE=T BraDBF=F KetDBF=T FulRan=T
         wScrn=  0.000000 ICntrl=       500 IOpCl=  0 I1Cent=   200000004 NGrid=           0
         NMat0=    1 NMatS0=      1 NMatT0=    0 NMatD0=    1 NMtDS0=    0 NMtDT0=    0
 Petite list used in FoFCou.
 Keep R1 ints in memory in symmetry-blocked form, NReq=529702667.
 Requested convergence on RMS density matrix=1.00D-08 within 128 cycles.
 Requested convergence on MAX density matrix=1.00D-06.
 Requested convergence on             energy=1.00D-06.
 No special actions if energy rises.
 SCF Done:  E(RHF) =  -112.443023139     A.U. after   12 cycles
            NFock= 12  Conv=0.26D-08     -V/T= 2.0017
 ExpMin= 2.53D-02 ExpMax= 1.14D+04 ExpMxC= 3.89D+02 IAcc=3 IRadAn=         5 AccDes= 0.00D+00
 HarFok:  IExCor=  205 AccDes= 0.00D+00 IRadAn=         5 IDoV=-2 UseB2=F ITyADJ=14
 ICtDFT= 12500011 ScaDFX=  1.000000  1.000000  1.000000  1.000000
 Range of M.O.s used for correlation:     3   230
 NBasis=   230 NAE=    10 NBE=    10 NFC=     2 NFV=     0
 NROrb=    228 NOA=     8 NOB=     8 NVA=   220 NVB=   220

 **** Warning!!: The largest alpha MO coefficient is  0.20547010D+02

 Disk-based method using ON**2 memory for  8 occupieds at a time.
 Permanent disk used for amplitudes=     5924050 words.
 Estimated scratch disk usage=   172924158 words.
 Actual    scratch disk usage=   167433470 words.
 JobTyp=1 Pass  1:  I=   3 to  10 NPSUse= 40 ParTrn=T ParDer=T DoDerP=T.
 (rs|ai) integrals will be sorted in core.
 Spin components of T(2) and E(2):
     alpha-alpha T2 =       0.1593712930D-01 E2=     -0.5343708875D-01
     alpha-beta  T2 =       0.1023861729D+00 E2=     -0.3749553124D+00
     beta-beta   T2 =       0.1593712930D-01 E2=     -0.5343708875D-01
 ANorm=    0.1065016634D+01
 E2 =    -0.4818294899D+00 EUMP2 =    -0.11292485262884D+03
 G2DrvN: will do     9 centers at a time, making    1 passes.
 Calling FoFCou, ICntrl=  3107 FMM=F I1Cent=   0 AccDes= 0.00D+00.
 End of G2Drv F.D. properties file   721 does not exist.
 End of G2Drv F.D. properties file   722 does not exist.
 End of G2Drv F.D. properties file   788 does not exist.
          IDoAtm=11111111
          Differentiating once with respect to electric field.
                with respect to dipole field.
          Differentiating once with respect to nuclear coordinates.
 Keep R1 ints in memory in symmetry-blocked form, NReq=529704239.
          There are    27 degrees of freedom in the 1st order CPHF.  IDoFFX=6 NUNeed=    27.
     24 vectors produced by pass  0 Test12= 8.15D-15 3.70D-09 XBig12= 6.22D+00 7.59D-01.
 AX will form    24 AO Fock derivatives at one time.
     24 vectors produced by pass  1 Test12= 8.15D-15 3.70D-09 XBig12= 2.10D-01 1.33D-01.
     24 vectors produced by pass  2 Test12= 8.15D-15 3.70D-09 XBig12= 4.90D-03 2.02D-02.
     24 vectors produced by pass  3 Test12= 8.15D-15 3.70D-09 XBig12= 5.65D-05 1.61D-03.
     24 vectors produced by pass  4 Test12= 8.15D-15 3.70D-09 XBig12= 6.07D-07 1.79D-04.
     23 vectors produced by pass  5 Test12= 8.15D-15 3.70D-09 XBig12= 4.87D-09 1.41D-05.
     18 vectors produced by pass  6 Test12= 8.15D-15 3.70D-09 XBig12= 2.82D-11 8.38D-07.
      3 vectors produced by pass  7 Test12= 8.15D-15 3.70D-09 XBig12= 1.37D-13 7.48D-08.
      2 vectors produced by pass  8 Test12= 8.15D-15 3.70D-09 XBig12= 5.72D-16 4.86D-09.
 InvSVY:  IOpt=1 It=  1 EMax= 1.78D-15
 Solved reduced A of dimension   166 with    27 vectors.
 End of Minotr F.D. properties file   721 does not exist.
 End of Minotr F.D. properties file   722 does not exist.
 End of Minotr F.D. properties file   788 does not exist.
 MDV=  6710886400.
 Form MO integral derivatives with frozen-active canonical formalism.
 Discarding MO integrals.
 Reordered first order wavefunction length =      9680000
 In DefCFB: NBatch=  1 ICI= 10 ICA=220 LFMax= 74
            Large arrays: LIAPS=   526240000 LIARS=   220220000 words.
 Semi-Direct transformation.
 ModeAB=           4 MOrb=            10 LenV=    6709465262
 LASXX=     59022085 LTotXX=    59022085 LenRXX=   118805160
 LTotAB=    59783075 MaxLAS=    52918400 LenRXY=           0
 NonZer=   177827245 LenScr=   267787264 LnRSAI=    52918400
 LnScr1=    80163840 LExtra=           0 Total=    519674664
 MaxDsk=          -1 SrtSym=           T ITran=            4
 JobTyp=0 Pass  1:  I=   1 to  10.
 (rs|ai) integrals will be sorted in core.
 Spin components of T(2) and E(2):
     alpha-alpha T2 =       0.1593712930D-01 E2=     -0.5343708875D-01
     alpha-beta  T2 =       0.1023861729D+00 E2=     -0.3749553124D+00
     beta-beta   T2 =       0.1593712930D-01 E2=     -0.5343708875D-01
 ANorm=    0.1506160968D+01
 E2 =    -0.4818294899D+00 EUMP2 =    -0.11292485262884D+03
          IDoAtm=11111111
          Differentiating once with respect to electric field.
                with respect to dipole field.
          Differentiating once with respect to nuclear coordinates.
          There are     1 degrees of freedom in the 1st order CPHF.  IDoFFX=0 NUNeed=     1.
 LinEq1:  Iter=  0 NonCon=     1 RMS=2.43D-03 Max=3.53D-02 NDo=     1
 LinEq1:  Iter=  1 NonCon=     1 RMS=7.60D-04 Max=9.73D-03 NDo=     1
 LinEq1:  Iter=  2 NonCon=     1 RMS=2.88D-04 Max=3.72D-03 NDo=     1
 LinEq1:  Iter=  3 NonCon=     1 RMS=3.34D-05 Max=2.26D-04 NDo=     1
 LinEq1:  Iter=  4 NonCon=     1 RMS=6.14D-06 Max=5.93D-05 NDo=     1
 LinEq1:  Iter=  5 NonCon=     1 RMS=1.28D-06 Max=1.22D-05 NDo=     1
 LinEq1:  Iter=  6 NonCon=     1 RMS=3.61D-07 Max=3.39D-06 NDo=     1
 LinEq1:  Iter=  7 NonCon=     1 RMS=1.24D-07 Max=1.20D-06 NDo=     1
 LinEq1:  Iter=  8 NonCon=     1 RMS=1.93D-08 Max=1.66D-07 NDo=     1
 LinEq1:  Iter=  9 NonCon=     1 RMS=3.50D-09 Max=2.58D-08 NDo=     1
 LinEq1:  Iter= 10 NonCon=     1 RMS=5.32D-10 Max=4.48D-09 NDo=     1
 LinEq1:  Iter= 11 NonCon=     0 RMS=7.02D-11 Max=6.35D-10 NDo=     1
 Linear equations converged to 1.000D-10 1.000D-09 after    11 iterations.
 End of Minotr F.D. properties file   721 does not exist.
 End of Minotr F.D. properties file   722 does not exist.
 End of Minotr F.D. properties file   788 does not exist.
 Symmetrizing basis deriv contribution to polar:
 IMax=3 JMax=2 DiffMx= 0.00D+00
 G2DrvN: will do     9 centers at a time, making    1 passes.
 Calling FoFCou, ICntrl=  3107 FMM=F I1Cent=   0 AccDes= 0.00D+00.
 End of G2Drv F.D. properties file   721 does not exist.
 End of G2Drv F.D. properties file   722 does not exist.
 End of G2Drv F.D. properties file   788 does not exist.
 R2 and R3 integrals will be kept in memory, NReq=  1160168490.
 DD1Dir will call FoFMem   1 times, MxPair=       110
 NAB=    55 NAA=     0 NBB=     0.
 Discarding MO integrals.
 Calling FoFJK, ICntrl=  10100127 FMM=F ISym2X=1 I1Cent= 0 IOpClX= 0 NMat=1 NMatS=1 NMatT=0.
 ***** Axes restored to original set *****
 -------------------------------------------------------------------
 Center     Atomic                   Forces (Hartrees/Bohr)
 Number     Number              X              Y              Z
 -------------------------------------------------------------------
      1        7           0.001589089   -0.000000000   -0.001071327
      2        1           0.000962375   -0.000000000    0.001857713
      3        7          -0.001461027   -0.000000000   -0.001074763
      4        1           0.000376943    0.000000000    0.000148346
      5        1          -0.000281146   -0.000004673    0.000131124
      6        1          -0.000281146    0.000004673    0.000131124
      7        1          -0.000452545    0.000130081   -0.000061109
      8        1          -0.000452545   -0.000130081   -0.000061109
 -------------------------------------------------------------------
 Cartesian Forces:  Max     0.001857713 RMS     0.000711438
 -----------------------------------------------------------------------------------------------
                       Internal Coordinate Forces (Hartree/Bohr or radian)
  Cent   Atom   N1       Length/X         N2         Alpha/Y        N3         Beta/Z          J
 -----------------------------------------------------------------------------------------------
      1  N 
         X        1   0.000000(     1)
      2  H        1   0.000537(     2)      2  -0.003191(     9)
      3  N        1  -0.001646(     3)      2   0.003191(    10)      3   0.000000(    16)     0
      4  H        4   0.000044(     4)      1   0.001471(    11)      2  -0.000000(    17)     0
      5  H        4  -0.000023(     5)      5   0.000506(    12)      1  -0.000294(    18)     0
      6  H        4  -0.000023(     6)      5   0.000506(    13)      1   0.000294(    19)     0
      7  H        1   0.000310(     7)      3   0.000679(    14)      5   0.000111(    20)     0
      8  H        1   0.000310(     8)      3   0.000679(    15)      5  -0.000111(    21)     0
 -----------------------------------------------------------------------------------------------
 Internal  Forces:  Max     0.003191463 RMS     0.001141410

 GradGradGradGradGradGradGradGradGradGradGradGradGradGradGradGradGradGrad
 Berny optimization.
 Search for a local minimum.
 Step number   2 out of a maximum of  100
 All quantities printed in internal units (Hartrees-Bohrs-Radians)
 Second derivative matrix not updated -- analytic derivatives used.
 DE= -2.95D-04 DEPred=-1.23D-04 R= 2.40D+00
 TightC=F SS=  1.41D+00  RLast= 2.22D-01 DXNew= 5.0454D-01 6.6698D-01
 Trust test= 2.40D+00 RLast= 2.22D-01 DXMaxT set to 5.05D-01
 The second derivative matrix:
                          R1        R2        R3        A1        A2
           R1           0.46250
           R2          -0.00698   0.91904
           R3           0.00003  -0.00006   0.91875
           A1           0.00045  -0.00049   0.00065   0.00402
           A2           0.05228   0.01874   0.00015   0.00017   0.38788
           A3           0.00013  -0.00002   0.01977   0.00124   0.00015
           D1          -0.00809  -0.09662  -0.00013  -0.00270   0.24004
           D2           0.00005  -0.00013  -0.09930  -0.00002   0.00027
           Rah         -0.00023  -0.00037  -0.00678  -0.00049  -0.00059
           Rab          0.00019   0.00020   0.00032   0.00077   0.00046
           Aahb        -0.00043   0.00078  -0.00151  -0.00562  -0.00232
                          A3        D1        D2        Rah       Rab
           A3           0.37899
           D1           0.00017   0.43219
           D2           0.24106   0.00034   0.43429
           Rah          0.04694   0.00081  -0.00845   0.45012
           Rab          0.00171  -0.00025   0.00062   0.00152   0.00015
           Aahb        -0.00180   0.00297  -0.00125   0.00288  -0.00141
                         Aahb
           Aahb         0.01635
 ITU=  1  0
     Eigenvalues ---    0.00398   0.14978   0.15433   0.45237   0.46410
     Eigenvalues ---    0.63988   0.64401   0.93927   0.940071000.00000
     Eigenvalues --- 1000.00000
 RFO step:  Lambda=-4.86396707D-04 EMin= 3.98180529D-03
 Skip linear search -- no minimum in search direction.
 Variable       Old X    -DE/DX   Delta X   Delta X   Delta X     New X
                                 (Linear)    (Quad)   (Total)
    R1        1.91308   0.00004   0.00000  -0.00061  -0.00061   1.91247
    R2        1.91294  -0.00005   0.00000  -0.00007  -0.00007   1.91287
    R3        1.91259   0.00062   0.00000   0.00027   0.00027   1.91286
    A1        2.05354   0.00147   0.00000   0.32479   0.32479   2.37832
    A2        1.86349   0.00101   0.00000   0.00327   0.00327   1.86677
    A3        1.86078   0.00136   0.00000   0.00303   0.00303   1.86381
    D1        2.14754  -0.00059   0.00000  -0.00117  -0.00117   2.14636
    D2        2.15125   0.00022   0.00000  -0.00107  -0.00107   2.15018
   Rah        1.91922   0.00054   0.00000   0.00122   0.00122   1.92044
   Rab        7.01977  -0.00165   0.00000   0.00000   0.00000   7.01977
   Aahb       1.78896  -0.00319   0.00000   0.00000   0.00000   1.78896
         Item               Value     Threshold  Converged?
 Maximum Force            0.001471     0.000450     NO 
 RMS     Force            0.000823     0.000300     NO 
 Maximum Displacement     0.324787     0.001800     NO 
 RMS     Displacement     0.097938     0.001200     NO 
 Predicted change in Energy=-2.688545D-04
 GradGradGradGradGradGradGradGradGradGradGradGradGradGradGradGradGradGrad

 ---------------------------------------------------------------------------------------------------
                            Z-MATRIX (ANGSTROMS AND DEGREES)
   CD    Cent   Atom    N1       Length/X        N2       Alpha/Y        N3        Beta/Z          J
 ---------------------------------------------------------------------------------------------------
      1      1  N 
      2         X        1   1.000000(     1)
      3      2  H        1   1.016252(     2)      2  102.500(     9)
      4      3  N        1   3.714700(     3)      2   90.000(    10)      3    0.000(    16)      0
      5      4  H        4   1.012035(     4)      1  136.268(    11)      2  180.000(    17)      0
      6      5  H        4   1.012245(     5)      5  106.958(    12)      1  122.978(    18)      0
      7      6  H        4   1.012245(     6)      5  106.958(    13)      1 -122.978(    19)      0
      8      7  H        1   1.012242(     7)      3  106.789(    14)      5  123.197(    20)      0
      9      8  H        1   1.012242(     8)      3  106.789(    15)      5 -123.197(    21)      0
 ---------------------------------------------------------------------------------------------------
                         Z-Matrix orientation:                         
 ---------------------------------------------------------------------
 Center     Atomic      Atomic             Coordinates (Angstroms)
 Number     Number       Type             X           Y           Z
 ---------------------------------------------------------------------
      1          7           0        0.000000    0.000000    0.000000
      2         -1           0        0.000000    0.000000    1.000000
      3          1           0        0.992163    0.000000   -0.219957
      4          7           0        3.714700    0.000000    0.000000
      5          1           0        4.445976   -0.000000   -0.699606
      6          1           0        3.865686   -0.812234    0.584909
      7          1           0        3.865686    0.812234    0.584909
      8          1           0       -0.400287    0.810939   -0.454734
      9          1           0       -0.400287   -0.810939   -0.454734
 ---------------------------------------------------------------------
                    Distance matrix (angstroms):
                    1          2          3          4          5
     1  N    0.000000
     2  X    1.000000   0.000000
     3  H    1.016252   1.572476   0.000000
     4  N    3.714700   3.846946   2.731408   0.000000
     5  H    4.500684   4.759766   3.486960   1.012035   0.000000
     6  H    3.993165   3.971845   3.092680   1.012245   1.626788
     7  H    3.993165   3.971845   3.092680   1.012245   1.626788
     8  H    1.012242   1.712922   1.628391   4.218711   4.919741
     9  H    1.012242   1.712922   1.628391   4.218711   4.919741
                    6          7          8          9
     6  H    0.000000
     7  H    1.624468   0.000000
     8  H    4.681247   4.390829   0.000000
     9  H    4.390829   4.681247   1.621877   0.000000
 Stoichiometry    H6N2
 Framework group  CS[SG(H2N2),X(H4)]
 Deg. of freedom    11
 Full point group                 CS      NOp   2
 Largest Abelian subgroup         CS      NOp   2
 Largest concise Abelian subgroup CS      NOp   2
                         Standard orientation:                         
 ---------------------------------------------------------------------
 Center     Atomic      Atomic             Coordinates (Angstroms)
 Number     Number       Type             X           Y           Z
 ---------------------------------------------------------------------
      1          7           0        0.032961    1.918592   -0.000000
      2          1           0       -0.186996    0.926429   -0.000000
      3          7           0        0.032961   -1.796108    0.000000
      4          1           0       -0.666646   -2.527385    0.000000
      5          1           0        0.617869   -1.947094    0.812234
      6          1           0        0.617869   -1.947094   -0.812234
      7          1           0       -0.421773    2.318879   -0.810939
      8          1           0       -0.421773    2.318879    0.810939
 ---------------------------------------------------------------------
 Rotational constants (GHZ):          60.8095527           3.3563669           3.3058217
 Standard basis: Aug-CC-pVTZ (5D, 7F)
 There are   160 symmetry adapted cartesian basis functions of A'  symmetry.
 There are   100 symmetry adapted cartesian basis functions of A"  symmetry.
 There are   138 symmetry adapted basis functions of A'  symmetry.
 There are    92 symmetry adapted basis functions of A"  symmetry.
   230 basis functions,   306 primitive gaussians,   260 cartesian basis functions
    10 alpha electrons       10 beta electrons
       nuclear repulsion energy        37.8425889438 Hartrees.
 NAtoms=    8 NActive=    8 NUniq=    6 SFac= 1.78D+00 NAtFMM=   60 NAOKFM=F Big=F
 Integral buffers will be    131072 words long.
 Raffenetti 1 integral format.
 Two-electron integral symmetry is turned on.
 One-electron integrals computed using PRISM.
 NBasis=   230 RedAO= T EigKep=  1.41D-04  NBF=   138    92
 NBsUse=   230 1.00D-06 EigRej= -1.00D+00 NBFU=   138    92
 Initial guess from the checkpoint file:  "/scr/Gau-58595.chk"
 B after Tr=    -0.000000   -0.000000   -0.000000
         Rot=    0.999968   -0.000000    0.000000   -0.007940 Ang=  -0.91 deg.
 Initial guess orbital symmetries:
       Occupied  (A') (A') (A') (A') (A') (A") (A") (A') (A') (A')
       Virtual   (A') (A') (A") (A') (A") (A') (A') (A') (A") (A')
                 (A') (A') (A") (A') (A") (A') (A") (A') (A") (A')
                 (A') (A") (A') (A") (A') (A') (A") (A") (A') (A')
                 (A") (A') (A') (A') (A') (A") (A") (A') (A") (A')
                 (A') (A") (A') (A") (A') (A') (A") (A') (A") (A')
                 (A') (A') (A") (A') (A') (A") (A') (A') (A") (A')
                 (A") (A") (A') (A") (A') (A") (A') (A") (A') (A')
                 (A') (A") (A") (A') (A") (A') (A") (A') (A') (A")
                 (A") (A') (A') (A") (A') (A") (A') (A') (A") (A')
                 (A') (A") (A') (A') (A") (A') (A') (A') (A") (A")
                 (A') (A") (A') (A") (A') (A") (A') (A") (A') (A')
                 (A') (A') (A") (A") (A") (A') (A") (A') (A') (A')
                 (A") (A') (A") (A") (A') (A") (A') (A") (A') (A')
                 (A') (A") (A') (A') (A') (A') (A") (A') (A') (A")
                 (A") (A') (A') (A") (A') (A') (A") (A') (A") (A')
                 (A") (A") (A") (A") (A') (A") (A') (A") (A') (A')
                 (A") (A') (A') (A") (A') (A') (A") (A') (A") (A')
                 (A') (A') (A") (A') (A") (A') (A') (A") (A") (A")
                 (A') (A") (A') (A") (A') (A') (A") (A') (A') (A')
                 (A') (A") (A') (A") (A') (A') (A') (A") (A") (A')
                 (A') (A') (A') (A") (A") (A') (A") (A") (A') (A')
                 (A') (A") (A") (A') (A') (A") (A") (A') (A') (A')
 ExpMin= 2.53D-02 ExpMax= 1.14D+04 ExpMxC= 3.89D+02 IAcc=3 IRadAn=         5 AccDes= 0.00D+00
 Harris functional with IExCor=  205 and IRadAn=       5 diagonalized for initial guess.
 HarFok:  IExCor=  205 AccDes= 0.00D+00 IRadAn=         5 IDoV= 1 UseB2=F ITyADJ=14
 ICtDFT=  3500011 ScaDFX=  1.000000  1.000000  1.000000  1.000000
 FoFCou: FMM=F IPFlag=           0 FMFlag=      100000 FMFlg1=           0
         NFxFlg=           0 DoJE=T BraDBF=F KetDBF=T FulRan=T
         wScrn=  0.000000 ICntrl=       500 IOpCl=  0 I1Cent=   200000004 NGrid=           0
         NMat0=    1 NMatS0=      1 NMatT0=    0 NMatD0=    1 NMtDS0=    0 NMtDT0=    0
 Petite list used in FoFCou.
 Keep R1 ints in memory in symmetry-blocked form, NReq=529702667.
 Requested convergence on RMS density matrix=1.00D-08 within 128 cycles.
 Requested convergence on MAX density matrix=1.00D-06.
 Requested convergence on             energy=1.00D-06.
 No special actions if energy rises.
 SCF Done:  E(RHF) =  -112.443336322     A.U. after   11 cycles
            NFock= 11  Conv=0.20D-08     -V/T= 2.0017
 ExpMin= 2.53D-02 ExpMax= 1.14D+04 ExpMxC= 3.89D+02 IAcc=3 IRadAn=         5 AccDes= 0.00D+00
 HarFok:  IExCor=  205 AccDes= 0.00D+00 IRadAn=         5 IDoV=-2 UseB2=F ITyADJ=14
 ICtDFT= 12500011 ScaDFX=  1.000000  1.000000  1.000000  1.000000
 Range of M.O.s used for correlation:     3   230
 NBasis=   230 NAE=    10 NBE=    10 NFC=     2 NFV=     0
 NROrb=    228 NOA=     8 NOB=     8 NVA=   220 NVB=   220

 **** Warning!!: The largest alpha MO coefficient is  0.20540405D+02

 Disk-based method using ON**2 memory for  8 occupieds at a time.
 Permanent disk used for amplitudes=     5924050 words.
 Estimated scratch disk usage=   172713600 words.
 Actual    scratch disk usage=   167257216 words.
 JobTyp=1 Pass  1:  I=   3 to  10 NPSUse= 40 ParTrn=T ParDer=T DoDerP=T.
 (rs|ai) integrals will be sorted in core.
 Spin components of T(2) and E(2):
     alpha-alpha T2 =       0.1593023733D-01 E2=     -0.5342763612D-01
     alpha-beta  T2 =       0.1023590693D+00 E2=     -0.3749175594D+00
     beta-beta   T2 =       0.1593023733D-01 E2=     -0.5342763612D-01
 ANorm=    0.1064997438D+01
 E2 =    -0.4817728317D+00 EUMP2 =    -0.11292510915377D+03
 G2DrvN: will do     9 centers at a time, making    1 passes.
 Calling FoFCou, ICntrl=  3107 FMM=F I1Cent=   0 AccDes= 0.00D+00.
 End of G2Drv F.D. properties file   721 does not exist.
 End of G2Drv F.D. properties file   722 does not exist.
 End of G2Drv F.D. properties file   788 does not exist.
          IDoAtm=11111111
          Differentiating once with respect to electric field.
                with respect to dipole field.
          Differentiating once with respect to nuclear coordinates.
 Keep R1 ints in memory in symmetry-blocked form, NReq=529704239.
          There are    27 degrees of freedom in the 1st order CPHF.  IDoFFX=6 NUNeed=    27.
     24 vectors produced by pass  0 Test12= 8.15D-15 3.70D-09 XBig12= 6.24D+00 7.21D-01.
 AX will form    24 AO Fock derivatives at one time.
     24 vectors produced by pass  1 Test12= 8.15D-15 3.70D-09 XBig12= 2.24D-01 1.26D-01.
     24 vectors produced by pass  2 Test12= 8.15D-15 3.70D-09 XBig12= 5.09D-03 1.86D-02.
     24 vectors produced by pass  3 Test12= 8.15D-15 3.70D-09 XBig12= 5.79D-05 1.64D-03.
     24 vectors produced by pass  4 Test12= 8.15D-15 3.70D-09 XBig12= 4.20D-07 1.59D-04.
     23 vectors produced by pass  5 Test12= 8.15D-15 3.70D-09 XBig12= 3.17D-09 1.00D-05.
     19 vectors produced by pass  6 Test12= 8.15D-15 3.70D-09 XBig12= 2.14D-11 7.92D-07.
      3 vectors produced by pass  7 Test12= 8.15D-15 3.70D-09 XBig12= 1.28D-13 5.69D-08.
      1 vectors produced by pass  8 Test12= 8.15D-15 3.70D-09 XBig12= 7.39D-16 4.39D-09.
 InvSVY:  IOpt=1 It=  1 EMax= 1.33D-15
 Solved reduced A of dimension   166 with    27 vectors.
 End of Minotr F.D. properties file   721 does not exist.
 End of Minotr F.D. properties file   722 does not exist.
 End of Minotr F.D. properties file   788 does not exist.
 MDV=  6710886400.
 Form MO integral derivatives with frozen-active canonical formalism.
 Discarding MO integrals.
 Reordered first order wavefunction length =      9680000
 In DefCFB: NBatch=  1 ICI= 10 ICA=220 LFMax= 74
            Large arrays: LIAPS=   526240000 LIARS=   220220000 words.
 Semi-Direct transformation.
 ModeAB=           4 MOrb=            10 LenV=    6709465150
 LASXX=     59022085 LTotXX=    59022085 LenRXX=   118805160
 LTotAB=    59783075 MaxLAS=    52955200 LenRXY=           0
 NonZer=   177827245 LenScr=   267787264 LnRSAI=    52955200
 LnScr1=    80211456 LExtra=           0 Total=    519759080
 MaxDsk=          -1 SrtSym=           T ITran=            4
 JobTyp=0 Pass  1:  I=   1 to  10.
 (rs|ai) integrals will be sorted in core.
 Spin components of T(2) and E(2):
     alpha-alpha T2 =       0.1593023733D-01 E2=     -0.5342763612D-01
     alpha-beta  T2 =       0.1023590693D+00 E2=     -0.3749175594D+00
     beta-beta   T2 =       0.1593023733D-01 E2=     -0.5342763612D-01
 ANorm=    0.1506133821D+01
 E2 =    -0.4817728317D+00 EUMP2 =    -0.11292510915377D+03
          IDoAtm=11111111
          Differentiating once with respect to electric field.
                with respect to dipole field.
          Differentiating once with respect to nuclear coordinates.
          There are     1 degrees of freedom in the 1st order CPHF.  IDoFFX=0 NUNeed=     1.
 LinEq1:  Iter=  0 NonCon=     1 RMS=2.43D-03 Max=3.54D-02 NDo=     1
 LinEq1:  Iter=  1 NonCon=     1 RMS=7.60D-04 Max=9.90D-03 NDo=     1
 LinEq1:  Iter=  2 NonCon=     1 RMS=2.86D-04 Max=3.54D-03 NDo=     1
 LinEq1:  Iter=  3 NonCon=     1 RMS=3.26D-05 Max=2.39D-04 NDo=     1
 LinEq1:  Iter=  4 NonCon=     1 RMS=5.80D-06 Max=5.15D-05 NDo=     1
 LinEq1:  Iter=  5 NonCon=     1 RMS=1.21D-06 Max=1.21D-05 NDo=     1
 LinEq1:  Iter=  6 NonCon=     1 RMS=3.28D-07 Max=3.00D-06 NDo=     1
 LinEq1:  Iter=  7 NonCon=     1 RMS=1.18D-07 Max=1.07D-06 NDo=     1
 LinEq1:  Iter=  8 NonCon=     1 RMS=1.93D-08 Max=1.57D-07 NDo=     1
 LinEq1:  Iter=  9 NonCon=     1 RMS=3.56D-09 Max=2.91D-08 NDo=     1
 LinEq1:  Iter= 10 NonCon=     1 RMS=5.26D-10 Max=4.08D-09 NDo=     1
 LinEq1:  Iter= 11 NonCon=     0 RMS=6.50D-11 Max=5.92D-10 NDo=     1
 Linear equations converged to 1.000D-10 1.000D-09 after    11 iterations.
 End of Minotr F.D. properties file   721 does not exist.
 End of Minotr F.D. properties file   722 does not exist.
 End of Minotr F.D. properties file   788 does not exist.
 Symmetrizing basis deriv contribution to polar:
 IMax=3 JMax=2 DiffMx= 0.00D+00
 G2DrvN: will do     9 centers at a time, making    1 passes.
 Calling FoFCou, ICntrl=  3107 FMM=F I1Cent=   0 AccDes= 0.00D+00.
 End of G2Drv F.D. properties file   721 does not exist.
 End of G2Drv F.D. properties file   722 does not exist.
 End of G2Drv F.D. properties file   788 does not exist.
 R2 and R3 integrals will be kept in memory, NReq=  1160168490.
 DD1Dir will call FoFMem   1 times, MxPair=       110
 NAB=    55 NAA=     0 NBB=     0.
 Discarding MO integrals.
 Calling FoFJK, ICntrl=  10100127 FMM=F ISym2X=1 I1Cent= 0 IOpClX= 0 NMat=1 NMatS=1 NMatT=0.
 ***** Axes restored to original set *****
 -------------------------------------------------------------------
 Center     Atomic                   Forces (Hartrees/Bohr)
 Number     Number              X              Y              Z
 -------------------------------------------------------------------
      1        7           0.001845893    0.000000000   -0.000472457
      2        1          -0.000088585    0.000000000    0.000635738
      3        7          -0.002023112   -0.000000000   -0.000273516
      4        1           0.000075330   -0.000000000    0.000084437
      5        1           0.000073995   -0.000000673    0.000006355
      6        1           0.000073995    0.000000673    0.000006355
      7        1           0.000021242    0.000020916    0.000006544
      8        1           0.000021242   -0.000020916    0.000006544
 -------------------------------------------------------------------
 Cartesian Forces:  Max     0.002023112 RMS     0.000585806
 -----------------------------------------------------------------------------------------------
                       Internal Coordinate Forces (Hartree/Bohr or radian)
  Cent   Atom   N1       Length/X         N2         Alpha/Y        N3         Beta/Z          J
 -----------------------------------------------------------------------------------------------
      1  N 
         X        1   0.000000(     1)
      2  H        1  -0.000224(     2)      2  -0.001182(     9)
      3  N        1  -0.001800(     3)      2   0.001182(    10)      3   0.000000(    16)     0
      4  H        4  -0.000004(     4)      1   0.000056(    11)      2  -0.000000(    17)     0
      5  H        4   0.000015(     5)      5  -0.000107(    12)      1   0.000085(    18)     0
      6  H        4   0.000015(     6)      5  -0.000107(    13)      1  -0.000085(    19)     0
      7  H        1   0.000005(     7)      3  -0.000042(    14)      5  -0.000038(    20)     0
      8  H        1   0.000005(     8)      3  -0.000042(    15)      5   0.000038(    21)     0
 -----------------------------------------------------------------------------------------------
 Internal  Forces:  Max     0.001799792 RMS     0.000540276

 GradGradGradGradGradGradGradGradGradGradGradGradGradGradGradGradGradGrad
 Berny optimization.
 Search for a local minimum.
 Step number   3 out of a maximum of  100
 All quantities printed in internal units (Hartrees-Bohrs-Radians)
 Second derivative matrix not updated -- analytic derivatives used.
 DE= -2.57D-04 DEPred=-2.69D-04 R= 9.54D-01
 TightC=F SS=  1.41D+00  RLast= 3.25D-01 DXNew= 8.4853D-01 9.7447D-01
 Trust test= 9.54D-01 RLast= 3.25D-01 DXMaxT set to 8.49D-01
 The second derivative matrix:
                          R1        R2        R3        A1        A2
           R1           0.46356
           R2          -0.00701   0.91920
           R3           0.00002  -0.00005   0.91819
           A1           0.00047  -0.00066   0.00057   0.00451
           A2           0.05185   0.01789   0.00026   0.00154   0.38972
           A3           0.00021  -0.00013   0.01902   0.00172   0.00062
           D1          -0.00812  -0.09651  -0.00011  -0.00364   0.23992
           D2           0.00008  -0.00021  -0.09897   0.00041   0.00060
           Rah         -0.00014  -0.00053  -0.00680   0.00089  -0.00012
           Rab          0.00013   0.00032   0.00018   0.00011   0.00041
           Aahb        -0.00050   0.00092  -0.00147  -0.00646  -0.00445
                          A3        D1        D2        Rah       Rab
           A3           0.37966
           D1          -0.00018   0.43098
           D2           0.24195   0.00017   0.43248
           Rah          0.04710  -0.00012  -0.00833   0.44817
           Rab          0.00145   0.00025   0.00051   0.00154   0.00001
           Aahb        -0.00280   0.00345  -0.00065   0.00081  -0.00011
                         Aahb
           Aahb         0.01679
 ITU=  1  1  0
     Eigenvalues ---    0.00441   0.14859   0.15518   0.45038   0.46507
     Eigenvalues ---    0.64002   0.64397   0.93940   0.939461000.00000
     Eigenvalues --- 1000.00000
 RFO step:  Lambda=-8.74794424D-07 EMin= 4.40506948D-03
 Quintic linear search produced a step of  0.03448.
 Variable       Old X    -DE/DX   Delta X   Delta X   Delta X     New X
                                 (Linear)    (Quad)   (Total)
    R1        1.91247  -0.00000  -0.00002   0.00019   0.00017   1.91264
    R2        1.91287   0.00003  -0.00000   0.00022   0.00022   1.91308
    R3        1.91286   0.00001   0.00001  -0.00002  -0.00001   1.91285
    A1        2.37832   0.00006   0.01120   0.00305   0.01424   2.39257
    A2        1.86677  -0.00021   0.00011  -0.00157  -0.00146   1.86531
    A3        1.86381  -0.00008   0.00010  -0.00024  -0.00014   1.86367
    D1        2.14636   0.00017  -0.00004   0.00141   0.00137   2.14773
    D2        2.15018  -0.00008  -0.00004  -0.00008  -0.00012   2.15007
   Rah        1.92044  -0.00022   0.00004  -0.00054  -0.00050   1.91994
   Rab        7.01977  -0.00180   0.00000   0.00000   0.00000   7.01977
   Aahb       1.78896  -0.00118   0.00000   0.00000   0.00000   1.78896
         Item               Value     Threshold  Converged?
 Maximum Force            0.000224     0.000450     YES
 RMS     Force            0.000126     0.000300     YES
 Maximum Displacement     0.014242     0.001800     NO 
 RMS     Displacement     0.004340     0.001200     NO 
 Predicted change in Energy=-7.544818D-07
 GradGradGradGradGradGradGradGradGradGradGradGradGradGradGradGradGradGrad

 ---------------------------------------------------------------------------------------------------
                            Z-MATRIX (ANGSTROMS AND DEGREES)
   CD    Cent   Atom    N1       Length/X        N2       Alpha/Y        N3        Beta/Z          J
 ---------------------------------------------------------------------------------------------------
      1      1  N 
      2         X        1   1.000000(     1)
      3      2  H        1   1.015988(     2)      2  102.500(     9)
      4      3  N        1   3.714700(     3)      2   90.000(    10)      3    0.000(    16)      0
      5      4  H        4   1.012123(     4)      1  137.084(    11)      2  180.000(    17)      0
      6      5  H        4   1.012358(     5)      5  106.874(    12)      1  123.056(    18)      0
      7      6  H        4   1.012358(     6)      5  106.874(    13)      1 -123.056(    19)      0
      8      7  H        1   1.012237(     7)      3  106.781(    14)      5  123.190(    20)      0
      9      8  H        1   1.012237(     8)      3  106.781(    15)      5 -123.190(    21)      0
 ---------------------------------------------------------------------------------------------------
                         Z-Matrix orientation:                         
 ---------------------------------------------------------------------
 Center     Atomic      Atomic             Coordinates (Angstroms)
 Number     Number       Type             X           Y           Z
 ---------------------------------------------------------------------
      1          7           0        0.000000    0.000000    0.000000
      2         -1           0        0.000000    0.000000    1.000000
      3          1           0        0.991905    0.000000   -0.219900
      4          7           0        3.714700    0.000000    0.000000
[...]
 XXYZ=              0.0000 YYXZ=             -0.0000 ZZXY=             -3.6802
 N-N= 3.640071780160D+01 E-N=-3.365290157542D+02  KE= 1.122126872707D+02
 Symmetry A'   KE= 1.070020192731D+02
 Symmetry A"   KE= 5.210667997588D+00
  Exact polarizability:      31.350       0.000      26.861      -0.095       0.000      28.558
 Approx polarizability:      21.621      -0.168      21.598       0.000       0.000      21.817
 Breneman (CHELPG) radii used.
 Generate Potential Derived Charges using the Breneman model, NDens= 1.
 Grid spacing= 0.300 Box extension= 2.800
 NStep X,Y,Z=   25     37     26   Total possible points=       24050
 Number of Points to Fit=    8400

 **********************************************************************

            Electrostatic Properties Using The SCF Density.

 **********************************************************************

       Atomic Center    1 is at   0.057509  2.119132  0.000000
       Atomic Center    2 is at  -0.163075  1.124140  0.000000
       Atomic Center    3 is at   0.057509 -1.995568 -0.000000
       Atomic Center    4 is at  -0.901014 -2.320924 -0.000000
       Atomic Center    5 is at   0.516243 -2.380816  0.815073
       Atomic Center    6 is at   0.516243 -2.380816 -0.815073
       Atomic Center    7 is at  -0.386764  2.546733 -0.811601
       Atomic Center    8 is at  -0.386764  2.546733  0.811601
    8400 points will be used for fitting atomic charges
 Fitting point charges to electrostatic potential
 Charges from ESP fit, RMS=   0.00367 RRMS=   0.21054:
 ESP charges:
               1
     1  N   -0.918193
     2  H    0.270233
     3  N   -0.741394
     4  H    0.248912
     5  H    0.262692
     6  H    0.262692
     7  H    0.307530
     8  H    0.307530
 Sum of ESP charges =   0.00000
 ESP charges with hydrogens summed into heavy atoms:
               1
     1  N   -0.032901
     3  N    0.032901
 Charge=   0.00000 Dipole=    -1.5872    -2.0396    -0.0000 Tot=     2.5844
 -----------------------------------------------------------------

              Electrostatic Properties (Atomic Units)

 -----------------------------------------------------------------
    Center     Electric         -------- Electric Field --------
               Potential          X             Y             Z
 -----------------------------------------------------------------
    1 Atom    -18.387687
    2 Atom     -1.080417
    3 Atom    -18.370094
    4 Atom     -1.060867
    5 Atom     -1.061446
    6 Atom     -1.061446
    7 Atom     -1.079476
    8 Atom     -1.079476
 -----------------------------------------------------------------
 Rotating derivatives to standard orientation.
 Full mass-weighted force constant matrix:
 Low frequencies ---  -44.3425   -0.0014   -0.0009   -0.0007   15.3610   29.6101
 Low frequencies ---   53.7129   90.0465  110.5863
 ******    1 imaginary frequencies (negative Signs) ****** 
 Diagonal vibrational polarizability:
       56.5407345      21.9411234     145.1776036
 Harmonic frequencies (cm**-1), IR intensities (KM/Mole), Raman scattering
 activities (A**4/AMU), depolarization ratios for plane and unpolarized
 incident light, reduced masses (AMU), force constants (mDyne/A),
 and normal coordinates:
                      1                      2                      3
                     A'                     A"                     A'
 Frequencies --    -43.7118                59.7771               110.5553
 Red. masses --      4.7699                 2.1915                 2.1785
 Frc consts  --      0.0054                 0.0046                 0.0157
 IR Inten    --      0.6813                15.6296                22.2546
  Atom  AN      X      Y      Z        X      Y      Z        X      Y      Z
     1   7    -0.01   0.35  -0.00    -0.00   0.00   0.04    -0.03  -0.01  -0.00
     2   1    -0.05   0.36   0.00     0.00  -0.00  -0.07     0.10  -0.04   0.00
     3   7     0.03  -0.34   0.00     0.00   0.00  -0.12     0.12   0.02   0.00
     4   1    -0.01  -0.23  -0.00    -0.00   0.00   0.23    -0.15   0.78  -0.00
     5   1    -0.02  -0.39   0.00     0.07   0.65   0.15    -0.20  -0.35   0.00
     6   1    -0.02  -0.39  -0.00    -0.07  -0.65   0.15    -0.20  -0.35  -0.00
     7   1    -0.00   0.37  -0.00     0.11   0.06   0.01    -0.07  -0.06  -0.00
     8   1    -0.00   0.37   0.00    -0.11  -0.06   0.01    -0.07  -0.06   0.00
                      4                      5                      6
                     A"                     A"                     A'
 Frequencies --    157.5330               246.4955               323.8050
 Red. masses --      2.0438                 1.6527                 1.5062
 Frc consts  --      0.0299                 0.0592                 0.0930
 IR Inten    --     24.5504                 1.0202                47.3387
  Atom  AN      X      Y      Z        X      Y      Z        X      Y      Z
     1   7    -0.00   0.00   0.06    -0.00  -0.00  -0.06     0.06   0.09  -0.00
     2   1     0.00  -0.00  -0.12    -0.00   0.00  -0.64     0.81  -0.08   0.00
     3   7     0.00   0.00   0.02     0.00   0.00   0.04    -0.03  -0.01   0.00
     4   1    -0.00   0.00   0.32    -0.00   0.00   0.00    -0.01  -0.07  -0.00
     5   1     0.30  -0.13  -0.21    -0.02  -0.04   0.03    -0.01   0.02  -0.00
     6   1    -0.30   0.13  -0.21     0.02   0.04   0.03    -0.01   0.02   0.00
     7   1     0.50   0.04  -0.19     0.03   0.50   0.19    -0.29  -0.27   0.00
     8   1    -0.50  -0.04  -0.19    -0.03  -0.50   0.19    -0.29  -0.27  -0.00
                      7                      8                      9
                     A'                     A'                     A"
 Frequencies --    765.8396               882.5714              1210.1560
 Red. masses --      2.6029                 1.7543                 2.1893
 Frc consts  --      0.8995                 0.8051                 1.8890
 IR Inten    --     89.1266                95.0976                 8.8180
  Atom  AN      X      Y      Z        X      Y      Z        X      Y      Z
     1   7    -0.00  -0.00   0.00    -0.16   0.00  -0.00     0.00  -0.00   0.00
     2   1    -0.00  -0.00   0.00     0.74  -0.15   0.00     0.00  -0.00  -0.00
     3   7     0.01   0.22  -0.00    -0.00  -0.00   0.00    -0.00   0.00  -0.12
     4   1     0.21  -0.53  -0.00     0.00  -0.01  -0.00    -0.00   0.00   0.76
     5   1    -0.14  -0.51  -0.20     0.00   0.01  -0.00    -0.42  -0.17   0.04
     6   1    -0.14  -0.51   0.20     0.00   0.01   0.00     0.42   0.17   0.04
     7   1     0.00   0.00  -0.00     0.39   0.03  -0.22     0.00   0.00  -0.00
     8   1     0.00   0.00   0.00     0.39   0.03   0.22    -0.00  -0.00  -0.00
                     10                     11                     12
                     A'                     A'                     A"
 Frequencies --   1212.3889              1276.8865              1508.6629
 Red. masses --      2.1878                 1.8082                 1.2213
 Frc consts  --      1.8947                 1.7370                 1.6378
 IR Inten    --      8.8499                 5.0622                15.2823
  Atom  AN      X      Y      Z        X      Y      Z        X      Y      Z
     1   7     0.00  -0.00   0.00    -0.00  -0.11   0.00     0.00  -0.00  -0.07
     2   1    -0.00  -0.00   0.00     0.55  -0.20  -0.00     0.00  -0.00   0.92
     3   7    -0.12   0.01   0.00    -0.00  -0.00   0.00     0.00  -0.00  -0.00
     4   1    -0.18   0.23  -0.00     0.00  -0.00  -0.00     0.00  -0.00   0.00
     5   1     0.51  -0.13  -0.41    -0.00   0.00   0.00     0.00   0.00   0.00
     6   1     0.51  -0.13   0.41    -0.00   0.00  -0.00    -0.00  -0.00   0.00
     7   1    -0.00   0.00   0.00    -0.12   0.43   0.35     0.08   0.25   0.03
     8   1    -0.00   0.00  -0.00    -0.12   0.43  -0.35    -0.08  -0.25   0.03
                     13                     14                     15
                     A'                     A'                     A"
 Frequencies --   2500.6695              2503.6514              2620.9251
 Red. masses --      2.0792                 2.1180                 2.3136
 Frc consts  --      7.6607                 7.8220                 9.3638
 IR Inten    --      0.2718                 1.3659                 4.7243
  Atom  AN      X      Y      Z        X      Y      Z        X      Y      Z
     1   7    -0.00   0.00   0.00    -0.07   0.07  -0.00     0.00  -0.00  -0.16
     2   1    -0.00   0.01   0.00    -0.04   0.16  -0.00    -0.00  -0.00  -0.02
     3   7    -0.01  -0.07   0.00     0.00   0.00  -0.00    -0.00  -0.00   0.00
     4   1     0.57   0.15   0.00    -0.03  -0.01   0.00     0.00   0.00  -0.00
     5   1    -0.26   0.18  -0.47     0.01  -0.01   0.02    -0.00  -0.00   0.00
     6   1    -0.26   0.18   0.47     0.01  -0.01  -0.02     0.00   0.00   0.00
     7   1     0.01  -0.01   0.03     0.27  -0.30   0.57     0.30  -0.30   0.56
     8   1     0.01  -0.01  -0.03     0.27  -0.30  -0.57    -0.30   0.30   0.56
                     16                     17                     18
                     A'                     A"                     A'
 Frequencies --   2689.8884              2692.0377              3521.5787
 Red. masses --      2.3223                 2.3211                 1.0778
 Frc consts  --      9.8999                 9.9106                 7.8754
 IR Inten    --      8.6006                 8.8662                35.4122
  Atom  AN      X      Y      Z        X      Y      Z        X      Y      Z
     1   7    -0.00   0.00   0.00     0.00  -0.00  -0.00    -0.01  -0.07  -0.00
     2   1    -0.00  -0.00  -0.00     0.00  -0.00   0.00     0.19   0.98  -0.00
     3   7    -0.16   0.01  -0.00     0.00  -0.00  -0.16    -0.00   0.00  -0.00
     4   1     0.75   0.25  -0.00    -0.00  -0.00  -0.01    -0.00  -0.00  -0.00
     5   1     0.18  -0.16   0.34     0.32  -0.26   0.56     0.00   0.00   0.00
     6   1     0.18  -0.16  -0.34    -0.32   0.26   0.56     0.00   0.00  -0.00
     7   1    -0.00   0.00  -0.00    -0.00   0.00  -0.00    -0.02   0.00  -0.03
     8   1    -0.00   0.00   0.00     0.00  -0.00  -0.00    -0.02   0.00   0.03

 -------------------
 - Thermochemistry -
 -------------------
 Temperature   298.150 Kelvin.  Pressure   1.00000 Atm.
 Atom     1 has atomic number  7 and mass  14.00307
 Atom     2 has atomic number  1 and mass   1.00783
 Atom     3 has atomic number  7 and mass  14.00307
 Atom     4 has atomic number  1 and mass   2.01410
 Atom     5 has atomic number  1 and mass   2.01410
 Atom     6 has atomic number  1 and mass   2.01410
 Atom     7 has atomic number  1 and mass   2.01410
 Atom     8 has atomic number  1 and mass   2.01410
 Molecular mass:    39.08448 amu.
 Principal axes and moments of inertia in atomic units:
                           1         2         3
     Eigenvalues --    30.81676 653.95865 661.20570
           X           -0.02713   0.00000   0.99963
           Y            0.99963  -0.00000   0.02713
           Z            0.00000   1.00000  -0.00000
 This molecule is an asymmetric top.
 Rotational symmetry number  1.
 Rotational temperatures (Kelvin)      2.81061     0.13245     0.13099
 Rotational constants (GHZ):          58.56363     2.75972     2.72947
    1 imaginary frequencies ignored.
 Zero-point vibrational energy     145247.1 (Joules/Mol)
                                   34.71489 (Kcal/Mol)
 Warning -- explicit consideration of   5 degrees of freedom as
           vibrations may cause significant error
 Vibrational temperatures:     86.01   159.06   226.65   354.65   465.88
          (Kelvin)           1101.87  1269.82  1741.14  1744.36  1837.15
                             2170.63  3597.91  3602.20  3770.93  3870.15
                             3873.24  5066.77
 
 Zero-point correction=                           0.055322 (Hartree/Particle)
 Thermal correction to Energy=                    0.061392
 Thermal correction to Enthalpy=                  0.062336
 Thermal correction to Gibbs Free Energy=         0.026760
 Sum of electronic and zero-point Energies=           -112.867904
 Sum of electronic and thermal Energies=              -112.861833
 Sum of electronic and thermal Enthalpies=            -112.860889
 Sum of electronic and thermal Free Energies=         -112.896466
 
                     E (Thermal)             CV                S
                      KCal/Mol        Cal/Mol-Kelvin    Cal/Mol-Kelvin
 Total                   38.524             17.033             74.877
 Electronic               0.000              0.000              0.000
 Translational            0.889              2.981             36.918
 Rotational               0.889              2.981             24.103
 Vibrational             36.747             11.071             13.857
 Vibration     1          0.597              1.973              4.465
 Vibration     2          0.606              1.941              3.259
 Vibration     3          0.621              1.894              2.579
 Vibration     4          0.661              1.769              1.756
 Vibration     5          0.708              1.628              1.291
                       Q            Log10(Q)             Ln(Q)
 Total Bot       0.491377D-12        -12.308585        -28.341564
 Total V=0       0.137281D+14         13.137611         30.250468
 Vib (Bot)       0.123815D-23        -23.907228        -55.048426
 Vib (Bot)    1  0.345463D+01          0.538401          1.239715
 Vib (Bot)    2  0.185235D+01          0.267723          0.616456
 Vib (Bot)    3  0.128429D+01          0.108662          0.250204
 Vib (Bot)    4  0.793092D+00         -0.100676         -0.231816
 Vib (Bot)    5  0.579216D+00         -0.237160         -0.546081
 Vib (V=0)       0.345914D+02          1.538968          3.543605
 Vib (V=0)    1  0.399063D+01          0.601041          1.383948
 Vib (V=0)    2  0.241865D+01          0.383572          0.883208
 Vib (V=0)    3  0.187818D+01          0.273738          0.630306
 Vib (V=0)    4  0.143755D+01          0.157622          0.362938
 Vib (V=0)    5  0.126517D+01          0.102150          0.235209
 Electronic      0.100000D+01          0.000000          0.000000
 Translational   0.960418D+07          6.982460         16.077709
 Rotational      0.413221D+05          4.616183         10.629153
 ***** Axes restored to original set *****
 -------------------------------------------------------------------
 Center     Atomic                   Forces (Hartrees/Bohr)
 Number     Number              X              Y              Z
 -------------------------------------------------------------------
      1        7          -0.004173883    0.000000000   -0.004847679
      2        1          -0.005103425   -0.000000000    0.000103719
      3        7          -0.003471199   -0.000000000   -0.000556862
      4        1           0.001284416    0.000000000    0.001551214
      5        1           0.000438074    0.000238381   -0.000761379
      6        1           0.000438074   -0.000238381   -0.000761379
      7        1           0.005293971   -0.003707685    0.002636182
      8        1           0.005293971    0.003707685    0.002636182
 -------------------------------------------------------------------
 Cartesian Forces:  Max     0.005293971 RMS     0.002757522
 -----------------------------------------------------------------------------------------------
                       Internal Coordinate Forces (Hartree/Bohr or radian)
  Cent   Atom   N1       Length/X         N2         Alpha/Y        N3         Beta/Z          J
 -----------------------------------------------------------------------------------------------
      1  N 
         X        1   0.000000(     1)
      2  H        1  -0.005005(     2)      2  -0.002697(     9)
      3  N        1  -0.001311(     3)      2   0.002697(    10)      3  -0.000000(    16)     0
      4  H        4  -0.001056(     4)      1   0.001412(    11)      2   0.000000(    17)     0
      5  H        4  -0.000371(     5)      5  -0.001502(    12)      1   0.000493(    18)     0
      6  H        4  -0.000371(     6)      5  -0.001502(    13)      1  -0.000493(    19)     0
      7  H        1  -0.006322(     7)      3  -0.005287(    14)      5  -0.002017(    20)     0
      8  H        1  -0.006322(     8)      3  -0.005287(    15)      5   0.002017(    21)     0
 -----------------------------------------------------------------------------------------------
 Internal  Forces:  Max     0.006322206 RMS     0.003036905

 ----------------------------------------------------------------------

 Electric dipole moment (input orientation):
 (Debye = 10**-18 statcoulomb cm , SI units = C m)
                  (au)            (Debye)         (10**-30 SI)
   Tot        0.952694D+00      0.242151D+01      0.807728D+01
   x          0.752643D+00      0.191303D+01      0.638117D+01
   y          0.000000D+00      0.000000D+00      0.000000D+00
   z         -0.584084D+00     -0.148459D+01     -0.495207D+01

 Dipole polarizability, Alpha (input orientation).
 (esu units = cm**3 , SI units = C**2 m**2 J**-1)
 Alpha(0;0):
               (au)            (10**-24 esu)      (10**-40 SI)
   iso        0.289229D+02      0.428594D+01      0.476875D+01
   aniso      0.392947D+01      0.582288D+00      0.647883D+00
   xx         0.313501D+02      0.464560D+01      0.516893D+01
   yx         0.000000D+00      0.000000D+00      0.000000D+00
   yy         0.268610D+02      0.398040D+01      0.442879D+01
   zx        -0.951010D-01     -0.140925D-01     -0.156800D-01
   zy         0.000000D+00      0.000000D+00      0.000000D+00
   zz         0.285577D+02      0.423181D+01      0.470853D+01

 ----------------------------------------------------------------------

 Dipole orientation:
     7         -0.00000000          0.00000000         -0.00000000
     1          0.82345030          0.00000000          1.74099823
     7          4.76715088          0.00000000          6.14289021
     1          3.71310505          0.00000000          7.73913050
     1          5.89833597          1.54026510          6.18655967
     1          5.89833597         -1.54026510          6.18655967
     1         -1.15866618         -1.53370363         -0.12365067
     1         -1.15866618          1.53370363         -0.12365067

 Electric dipole moment (dipole orientation):
 (Debye = 10**-18 statcoulomb cm , SI units = C m)
                  (au)            (Debye)         (10**-30 SI)
   Tot        0.952694D+00      0.242151D+01      0.807728D+01
   x          0.000000D+00      0.000000D+00      0.000000D+00
   y          0.000000D+00      0.000000D+00      0.000000D+00
   z          0.952694D+00      0.242151D+01      0.807728D+01

 Dipole polarizability, Alpha (dipole orientation).
 (esu units = cm**3 , SI units = C**2 m**2 J**-1)
 Alpha(0;0):
               (au)            (10**-24 esu)      (10**-40 SI)
   iso        0.289229D+02      0.428594D+01      0.476875D+01
   aniso      0.392947D+01      0.582288D+00      0.647883D+00
   xx         0.295152D+02      0.437369D+01      0.486639D+01
   yx         0.000000D+00      0.000000D+00      0.000000D+00
   yy         0.268610D+02      0.398040D+01      0.442879D+01
   zx         0.132887D+01      0.196918D+00      0.219100D+00
   zy         0.000000D+00      0.000000D+00      0.000000D+00
   zz         0.303926D+02      0.450372D+01      0.501106D+01

 ----------------------------------------------------------------------


 TRUST EVERYONE, BUT CUT THE CARDS.
 Error termination request processed by link 9999.
 Error termination via Lnk1e in /sw/contrib/chem-src/g16/c01/g16/l9999.exe at Thu May 23 22:17:16 2024.
 Job cpu time:      12 days 11 hours  0 minutes 10.8 seconds.
 Elapsed time:       0 days  7 hours 34 minutes 22.2 seconds.
 File lengths (MBytes):  RWF=   5973 Int=      0 D2E=      0 Chk=      6 Scr=      1
