 Entering Gaussian System, Link 0=g16
 Input=nh3_nh3_linear_mp2_avtz_rab_opts.gjf
 Output=nh3_nh3_linear_mp2_avtz_rab_opts.log
 Initial command:
 /sw/contrib/gaussian/g16/A03/g16/l1.exe "/gscratch/scrubbed/gds001/Gau-17403.inp" -scrdir="/gscratch/scrubbed/gds001/"
 Entering Link 1 = /sw/contrib/gaussian/g16/A03/g16/l1.exe PID=     17404.
  
 Copyright (c) 1988,1990,1992,1993,1995,1998,2003,2009,2016,
            Gaussian, Inc.  All Rights Reserved.
  
 This is part of the Gaussian(R) 16 program.  It is based on
 the Gaussian(R) 09 system (copyright 2009, Gaussian, Inc.),
 the Gaussian(R) 03 system (copyright 2003, Gaussian, Inc.),
 the Gaussian(R) 98 system (copyright 1998, Gaussian, Inc.),
 the Gaussian(R) 94 system (copyright 1995, Gaussian, Inc.),
 the Gaussian 92(TM) system (copyright 1992, Gaussian, Inc.),
 the Gaussian 90(TM) system (copyright 1990, Gaussian, Inc.),
 the Gaussian 88(TM) system (copyright 1988, Gaussian, Inc.),
 the Gaussian 86(TM) system (copyright 1986, Carnegie Mellon
 University), and the Gaussian 82(TM) system (copyright 1983,
 Carnegie Mellon University). Gaussian is a federally registered
 trademark of Gaussian, Inc.
  
 This software contains proprietary and confidential information,
 including trade secrets, belonging to Gaussian, Inc.
  
 This software is provided under written license and may be
 used, copied, transmitted, or stored only in accord with that
 written license.
  
 The following legend is applicable only to US Government
 contracts under FAR:
  
                    RESTRICTED RIGHTS LEGEND
  
 Use, reproduction and disclosure by the US Government is
 subject to restrictions as set forth in subparagraphs (a)
 and (c) of the Commercial Computer Software - Restricted
 Rights clause in FAR 52.227-19.
  
 Gaussian, Inc.
 340 Quinnipiac St., Bldg. 40, Wallingford CT 06492
  
  
 ---------------------------------------------------------------
 Warning -- This program may not be used in any manner that
 competes with the business of Gaussian, Inc. or will provide
 assistance to any competitor of Gaussian, Inc.  The licensee
 of this program is prohibited from giving any competitor of
 Gaussian, Inc. access to this program.  By using this program,
 the user acknowledges that Gaussian, Inc. is engaged in the
 business of creating and licensing software in the field of
 computational chemistry and represents and warrants to the
 licensee that it is not a competitor of Gaussian, Inc. and that
 it will not use this program in any manner prohibited above.
 ---------------------------------------------------------------
  

 Cite this work as:
 Gaussian 16, Revision A.03,
 M. J. Frisch, G. W. Trucks, H. B. Schlegel, G. E. Scuseria, 
 M. A. Robb, J. R. Cheeseman, G. Scalmani, V. Barone, 
 G. A. Petersson, H. Nakatsuji, X. Li, M. Caricato, A. V. Marenich, 
 J. Bloino, B. G. Janesko, R. Gomperts, B. Mennucci, H. P. Hratchian, 
 J. V. Ortiz, A. F. Izmaylov, J. L. Sonnenberg, D. Williams-Young, 
 F. Ding, F. Lipparini, F. Egidi, J. Goings, B. Peng, A. Petrone, 
 T. Henderson, D. Ranasinghe, V. G. Zakrzewski, J. Gao, N. Rega, 
 G. Zheng, W. Liang, M. Hada, M. Ehara, K. Toyota, R. Fukuda, 
 J. Hasegawa, M. Ishida, T. Nakajima, Y. Honda, O. Kitao, H. Nakai, 
 T. Vreven, K. Throssell, J. A. Montgomery, Jr., J. E. Peralta, 
 F. Ogliaro, M. J. Bearpark, J. J. Heyd, E. N. Brothers, K. N. Kudin, 
 V. N. Staroverov, T. A. Keith, R. Kobayashi, J. Normand, 
 K. Raghavachari, A. P. Rendell, J. C. Burant, S. S. Iyengar, 
 J. Tomasi, M. Cossi, J. M. Millam, M. Klene, C. Adamo, R. Cammi, 
 J. W. Ochterski, R. L. Martin, K. Morokuma, O. Farkas, 
 J. B. Foresman, and D. J. Fox, Gaussian, Inc., Wallingford CT, 2016.
 
 ******************************************
 Gaussian 16:  ES64L-G16RevA.03 25-Dec-2016
                 9-Mar-2024 
 ******************************************
 %nprocshared=28
 Will use up to   28 processors via shared memory.
 %mem=41GB
 ---------------------------------------------------------------------
 # mp2/aug-cc-pVTZ Pop=ChelpG opt=(z-matrix,MaxCycles=10000,MaxStep=1)
 ---------------------------------------------------------------------
 1/6=10000,8=1,10=7,18=40,38=1/1,3;
 2/12=2,17=6,18=5,29=3,40=1/2;
 3/5=16,6=1,7=10,11=9,25=1,30=1,71=1/1,2,3;
 4//1;
 5/5=2,38=5/2;
 8/6=4,10=1/1;
 9/15=2,16=-3/6;
 10/5=1/2;
 6/7=2,8=2,9=2,10=2,15=8,20=3/1,2;
 7/12=2,29=1/1,2,3,16;
 1/6=10000,8=1,10=7,18=40/3(2);
 2/29=3/2;
 99//99;
 2/29=3/2;
 3/5=16,6=1,7=10,11=9,25=1,30=1,71=1/1,2,3;
 4/5=5,16=3,69=1/1;
 5/5=2,38=5/2;
 8/6=4,10=1/1;
 9/15=2,16=-3/6;
 10/5=1/2;
 7/12=2/1,2,3,16;
 1/6=10000,8=1,18=40/3(-8);
 2/29=3/2;
 6/7=2,8=2,9=2,10=2,15=8,20=3/1,2;
 99//99;
 ---------------------------------
 Title: Rab = 2.8147 Optimizations
 ---------------------------------
 Symbolic Z-matrix:
 Charge =  0 Multiplicity = 1
 N1
 X2                   1     1. 
 H3                   1    Rah      2     90. 
 N4                   1    Rab      2     90.      3     0.       0
 H5                   4    R1       1    A1       2     180.     0
 H6                   4    R2       5    A2       1    D1       0
 H7                   4    R2       5    A2       1    -D1      0
 H8                   1    R3       3    A3       5    D2       0
 H9                   1    R3       3    A3       5    -D2      0
       Variables:
  R1                    1.0127                   
  R2                    1.0125                   
  R3                    1.012                    
  A1                  104.9325                   
  A2                  106.7168                   
  A3                  107.0911                   
  D1                  123.101                    
  D2                  123.0327                   
  Rah                   1.0168                   
       Constants:
  Rab                   2.8147                   
 

 GradGradGradGradGradGradGradGradGradGradGradGradGradGradGradGradGradGrad
 Berny optimization.
 Initialization pass.
                       ----------------------------
                       !    Initial Parameters    !
                       ! (Angstroms and Degrees)  !
 ----------------------                            ----------------------
 !      Name          Value   Derivative information (Atomic Units)     !
 ------------------------------------------------------------------------
 !       R1          1.0127   estimate D2E/DX2                          !
 !       R2          1.0125   estimate D2E/DX2                          !
 !       R3          1.012    estimate D2E/DX2                          !
 !       A1        104.9325   estimate D2E/DX2                          !
 !       A2        106.7168   estimate D2E/DX2                          !
 !       A3        107.0911   estimate D2E/DX2                          !
 !       D1        123.101    estimate D2E/DX2                          !
 !       D2        123.0327   estimate D2E/DX2                          !
 !       Rah         1.0168   estimate D2E/DX2                          !
 !       Rab         2.8147   Frozen                                    !
 ------------------------------------------------------------------------
 Trust Radius=1.00D-02 FncErr=1.00D-07 GrdErr=1.00D-07 EigMax=2.50D+02 EigMin=1.00D-04
 Number of steps in this run=    100 maximum allowed number of steps=    100.
 GradGradGradGradGradGradGradGradGradGradGradGradGradGradGradGradGradGrad

 ---------------------------------------------------------------------------------------------------
                            Z-MATRIX (ANGSTROMS AND DEGREES)
   CD    Cent   Atom    N1       Length/X        N2       Alpha/Y        N3        Beta/Z          J
 ---------------------------------------------------------------------------------------------------
      1      1  N 
      2         X        1   1.000000(     1)
      3      2  H        1   1.016800(     2)      2   90.000(     9)
      4      3  N        1   2.814700(     3)      2   90.000(    10)      3    0.000(    16)      0
      5      4  H        4   1.012700(     4)      1  104.933(    11)      2  180.000(    17)      0
      6      5  H        4   1.012500(     5)      5  106.717(    12)      1  123.101(    18)      0
      7      6  H        4   1.012500(     6)      5  106.717(    13)      1 -123.101(    19)      0
      8      7  H        1   1.012000(     7)      3  107.091(    14)      5  123.033(    20)      0
      9      8  H        1   1.012000(     8)      3  107.091(    15)      5 -123.033(    21)      0
 ---------------------------------------------------------------------------------------------------
                         Z-Matrix orientation:                         
 ---------------------------------------------------------------------
 Center     Atomic      Atomic             Coordinates (Angstroms)
 Number     Number       Type             X           Y           Z
 ---------------------------------------------------------------------
      1          7           0        0.000000    0.000000    0.000000
      2         -1           0        0.000000    0.000000    1.000000
      3          1           0        1.016800    0.000000    0.000000
      4          7           0        2.814700    0.000000    0.000000
      5          1           0        3.075653   -0.000000   -0.978501
      6          1           0        3.251345   -0.812335    0.417863
      7          1           0        3.251345    0.812335    0.417863
      8          1           0       -0.297419   -0.810953    0.527297
      9          1           0       -0.297419    0.810953    0.527297
 ---------------------------------------------------------------------
                    Distance matrix (angstroms):
                    1          2          3          4          5
     1  N    0.000000
     2  X    1.000000   0.000000
     3  H    1.016800   1.426142   0.000000
     4  N    2.814700   2.987061   1.797900   0.000000
     5  H    3.227555   3.657063   2.279549   1.012700   0.000000
     6  H    3.377239   3.401472   2.414060   1.012500   1.624989
     7  H    3.377239   3.401472   2.414060   1.012500   1.624989
     8  H    1.012000   0.984657   1.631826   3.258983   3.781889
     9  H    1.012000   0.984657   1.631826   3.258983   3.781889
                    6          7          8          9
     6  H    0.000000
     7  H    1.624670   0.000000
     8  H    3.550451   3.903942   0.000000
     9  H    3.903942   3.550451   1.621905   0.000000
 Stoichiometry    H6N2
 Framework group  CS[SG(H2N2),X(H4)]
 Deg. of freedom    11
 Full point group                 CS      NOp   2
 Largest Abelian subgroup         CS      NOp   2
 Largest concise Abelian subgroup CS      NOp   2
                         Standard orientation:                         
 ---------------------------------------------------------------------
 Center     Atomic      Atomic             Coordinates (Angstroms)
 Number     Number       Type             X           Y           Z
 ---------------------------------------------------------------------
      1          7           0       -0.045591    1.485160    0.000000
      2          1           0       -0.045591    0.468360    0.000000
      3          7           0       -0.045591   -1.329540   -0.000000
      4          1           0       -1.024092   -1.590493   -0.000000
      5          1           0        0.372272   -1.766184    0.812335
      6          1           0        0.372272   -1.766184   -0.812335
      7          1           0        0.481706    1.782579    0.810953
      8          1           0        0.481706    1.782579   -0.810953
 ---------------------------------------------------------------------
 Rotational constants (GHZ):         113.4779654           6.9305210           6.8499398
 Standard basis: Aug-CC-pVTZ (5D, 7F)
 There are   160 symmetry adapted cartesian basis functions of A'  symmetry.
 There are   100 symmetry adapted cartesian basis functions of A"  symmetry.
 There are   138 symmetry adapted basis functions of A'  symmetry.
 There are    92 symmetry adapted basis functions of A"  symmetry.
   230 basis functions,   306 primitive gaussians,   260 cartesian basis functions
    10 alpha electrons       10 beta electrons
       nuclear repulsion energy        42.2970638644 Hartrees.
 NAtoms=    8 NActive=    8 NUniq=    6 SFac= 1.78D+00 NAtFMM=   60 NAOKFM=F Big=F
 Integral buffers will be    131072 words long.
 Raffenetti 1 integral format.
 Two-electron integral symmetry is turned on.
 One-electron integrals computed using PRISM.
 NBasis=   230 RedAO= T EigKep=  9.26D-05  NBF=   138    92
 NBsUse=   230 1.00D-06 EigRej= -1.00D+00 NBFU=   138    92
 ExpMin= 2.53D-02 ExpMax= 1.14D+04 ExpMxC= 3.89D+02 IAcc=3 IRadAn=         5 AccDes= 0.00D+00
 Harris functional with IExCor=  205 and IRadAn=       5 diagonalized for initial guess.
 HarFok:  IExCor=  205 AccDes= 0.00D+00 IRadAn=         5 IDoV= 1 UseB2=F ITyADJ=14
 ICtDFT=  3500011 ScaDFX=  1.000000  1.000000  1.000000  1.000000
 FoFCou: FMM=F IPFlag=           0 FMFlag=      100000 FMFlg1=           0
         NFxFlg=           0 DoJE=T BraDBF=F KetDBF=T FulRan=T
         wScrn=  0.000000 ICntrl=       500 IOpCl=  0 I1Cent=   200000004 NGrid=           0
         NMat0=    1 NMatS0=      1 NMatT0=    0 NMatD0=    1 NMtDS0=    0 NMtDT0=    0
 Petite list used in FoFCou.
 Initial guess orbital symmetries:
       Occupied  (A') (A') (A') (A') (A') (A") (A') (A") (A') (A')
       Virtual   (A') (A') (A") (A') (A") (A') (A') (A") (A') (A')
                 (A') (A") (A') (A") (A') (A") (A') (A') (A") (A')
                 (A') (A') (A") (A') (A") (A') (A") (A') (A') (A")
                 (A') (A") (A') (A') (A") (A') (A") (A') (A") (A')
                 (A") (A') (A') (A") (A') (A") (A') (A') (A') (A')
                 (A') (A") (A') (A') (A") (A") (A') (A') (A") (A')
                 (A") (A") (A') (A") (A') (A') (A") (A') (A") (A')
                 (A') (A") (A") (A") (A') (A") (A') (A') (A") (A')
                 (A') (A") (A') (A") (A') (A') (A") (A') (A") (A')
                 (A') (A') (A") (A') (A") (A') (A') (A") (A") (A')
                 (A') (A") (A") (A') (A') (A') (A") (A") (A') (A')
                 (A") (A') (A') (A') (A") (A") (A') (A') (A") (A')
                 (A") (A') (A") (A') (A") (A') (A") (A') (A') (A')
                 (A') (A") (A") (A') (A') (A') (A") (A') (A") (A')
                 (A') (A") (A') (A') (A") (A') (A") (A") (A') (A")
                 (A') (A") (A") (A") (A") (A') (A') (A") (A") (A')
                 (A') (A') (A") (A') (A') (A") (A') (A') (A") (A')
                 (A') (A") (A') (A') (A") (A') (A') (A') (A") (A")
                 (A') (A") (A") (A') (A") (A') (A') (A") (A') (A')
                 (A') (A") (A') (A") (A') (A') (A") (A') (A") (A')
                 (A') (A') (A") (A") (A") (A') (A") (A') (A') (A')
                 (A") (A') (A") (A') (A") (A") (A') (A') (A') (A')
 The electronic state of the initial guess is 1-A'.
 Keep R1 ints in memory in symmetry-blocked form, NReq=529702483.
 Requested convergence on RMS density matrix=1.00D-08 within 128 cycles.
 Requested convergence on MAX density matrix=1.00D-06.
 Requested convergence on             energy=1.00D-06.
 No special actions if energy rises.
 SCF Done:  E(RHF) =  -112.434296072     A.U. after   10 cycles
            NFock= 10  Conv=0.93D-08     -V/T= 2.0007
 ExpMin= 2.53D-02 ExpMax= 1.14D+04 ExpMxC= 3.89D+02 IAcc=3 IRadAn=         5 AccDes= 0.00D+00
 HarFok:  IExCor=  205 AccDes= 0.00D+00 IRadAn=         5 IDoV=-2 UseB2=F ITyADJ=14
 ICtDFT= 12500011 ScaDFX=  1.000000  1.000000  1.000000  1.000000
 Range of M.O.s used for correlation:     3   230
 NBasis=   230 NAE=    10 NBE=    10 NFC=     2 NFV=     0
 NROrb=    228 NOA=     8 NOB=     8 NVA=   220 NVB=   220

 **** Warning!!: The largest alpha MO coefficient is  0.29078055D+02

 Fully direct method using O(ONN) memory.
 JobTyp=1 Pass  1:  I=   3 to  10 NPSUse= 28 ParTrn=T ParDer=T DoDerP=T.
 Spin components of T(2) and E(2):
     alpha-alpha T2 =       0.1628879506D-01 E2=     -0.5466845336D-01
     alpha-beta  T2 =       0.1024933766D+00 E2=     -0.3771966759D+00
     beta-beta   T2 =       0.1628879506D-01 E2=     -0.5466845336D-01
 ANorm=    0.1065397093D+01
 E2 =    -0.4865335826D+00 EUMP2 =    -0.11292082965487D+03
          IDoAtm=11111111
          Differentiating once with respect to electric field.
                with respect to dipole field.
          Differentiating once with respect to nuclear coordinates.
 Keep R1 ints in memory in symmetry-blocked form, NReq=529703991.
          There are     1 degrees of freedom in the 1st order CPHF.  IDoFFX=0 NUNeed=     1.
 LinEq1:  Iter=  0 NonCon=     1 RMS=2.53D-03 Max=2.75D-02 NDo=     1
 AX will form     1 AO Fock derivatives at one time.
 LinEq1:  Iter=  1 NonCon=     1 RMS=6.92D-04 Max=6.45D-03 NDo=     1
 LinEq1:  Iter=  2 NonCon=     1 RMS=2.83D-04 Max=3.41D-03 NDo=     1
 LinEq1:  Iter=  3 NonCon=     1 RMS=3.54D-05 Max=2.81D-04 NDo=     1
 LinEq1:  Iter=  4 NonCon=     1 RMS=7.08D-06 Max=8.46D-05 NDo=     1
 LinEq1:  Iter=  5 NonCon=     1 RMS=2.16D-06 Max=2.20D-05 NDo=     1
 LinEq1:  Iter=  6 NonCon=     1 RMS=7.87D-07 Max=7.88D-06 NDo=     1
 LinEq1:  Iter=  7 NonCon=     1 RMS=1.56D-07 Max=1.78D-06 NDo=     1
 LinEq1:  Iter=  8 NonCon=     1 RMS=2.65D-08 Max=2.94D-07 NDo=     1
 LinEq1:  Iter=  9 NonCon=     1 RMS=5.17D-09 Max=5.73D-08 NDo=     1
 LinEq1:  Iter= 10 NonCon=     1 RMS=7.86D-10 Max=7.22D-09 NDo=     1
 LinEq1:  Iter= 11 NonCon=     1 RMS=1.15D-10 Max=1.15D-09 NDo=     1
 LinEq1:  Iter= 12 NonCon=     0 RMS=2.08D-11 Max=2.21D-10 NDo=     1
 Linear equations converged to 1.000D-10 1.000D-09 after    12 iterations.
 End of Minotr F.D. properties file   721 does not exist.
 End of Minotr F.D. properties file   722 does not exist.
 End of Minotr F.D. properties file   788 does not exist.

 **********************************************************************

            Population analysis using the SCF density.

 **********************************************************************

 Orbital symmetries:
       Occupied  (A') (A') (A') (A') (A') (A") (A') (A") (A') (A')
       Virtual   (A') (A") (A') (A') (A") (A') (A') (A') (A") (A')
                 (A') (A') (A") (A') (A") (A') (A") (A') (A") (A')
                 (A') (A") (A") (A') (A') (A') (A") (A') (A") (A')
                 (A") (A') (A') (A") (A') (A") (A') (A') (A") (A')
                 (A") (A') (A") (A') (A') (A') (A") (A') (A') (A')
                 (A") (A') (A') (A") (A") (A') (A') (A") (A') (A')
                 (A") (A") (A') (A") (A') (A') (A") (A') (A") (A")
                 (A') (A") (A') (A") (A') (A") (A') (A') (A") (A')
                 (A") (A') (A") (A') (A') (A") (A') (A') (A") (A')
                 (A') (A') (A") (A") (A') (A') (A') (A") (A') (A")
                 (A") (A') (A") (A') (A') (A') (A") (A") (A') (A')
                 (A') (A") (A") (A') (A') (A") (A') (A') (A") (A")
                 (A') (A") (A') (A') (A") (A') (A") (A') (A') (A")
                 (A') (A') (A") (A') (A') (A') (A") (A") (A') (A')
                 (A') (A") (A") (A') (A") (A') (A') (A") (A") (A')
                 (A") (A') (A") (A") (A") (A') (A') (A") (A') (A')
                 (A") (A') (A") (A') (A') (A') (A") (A") (A') (A')
                 (A") (A') (A') (A") (A') (A') (A") (A') (A") (A')
                 (A") (A') (A") (A') (A") (A') (A") (A') (A') (A')
                 (A') (A") (A') (A") (A') (A') (A") (A') (A') (A")
                 (A') (A') (A") (A") (A") (A') (A") (A') (A') (A')
                 (A") (A') (A") (A') (A") (A") (A') (A') (A') (A')
 The electronic state is 1-A'.
 Alpha  occ. eigenvalues --  -15.55745 -15.49389  -1.16610  -1.10069  -0.64917
 Alpha  occ. eigenvalues --   -0.64895  -0.60706  -0.58968  -0.44480  -0.38419
 Alpha virt. eigenvalues --    0.02316   0.04307   0.04616   0.04949   0.06542
 Alpha virt. eigenvalues --    0.07477   0.13379   0.13841   0.15212   0.15423
 Alpha virt. eigenvalues --    0.16900   0.17733   0.18965   0.20818   0.20818
 Alpha virt. eigenvalues --    0.21554   0.23750   0.24777   0.24934   0.27216
 Alpha virt. eigenvalues --    0.33211   0.34248   0.34599   0.36245   0.37697
 Alpha virt. eigenvalues --    0.37968   0.38081   0.38865   0.39908   0.41782
 Alpha virt. eigenvalues --    0.42454   0.42975   0.43789   0.45866   0.46582
 Alpha virt. eigenvalues --    0.48846   0.50683   0.53233   0.54571   0.55551
 Alpha virt. eigenvalues --    0.55997   0.58138   0.60614   0.61023   0.65653
 Alpha virt. eigenvalues --    0.67798   0.69639   0.71797   0.75123   0.81469
 Alpha virt. eigenvalues --    0.81513   0.84050   0.86609   0.88069   0.89341
 Alpha virt. eigenvalues --    0.89795   0.90761   0.92596   0.92947   0.93378
 Alpha virt. eigenvalues --    0.93925   0.95560   0.96830   1.01842   1.02277
 Alpha virt. eigenvalues --    1.03568   1.03767   1.04517   1.06029   1.08825
 Alpha virt. eigenvalues --    1.09035   1.10634   1.13009   1.14763   1.16775
 Alpha virt. eigenvalues --    1.17189   1.17299   1.19590   1.19783   1.22470
 Alpha virt. eigenvalues --    1.23875   1.26986   1.28811   1.31771   1.32716
 Alpha virt. eigenvalues --    1.33156   1.37568   1.40327   1.41755   1.43905
 Alpha virt. eigenvalues --    1.45608   1.50389   1.51876   1.54694   1.55355
 Alpha virt. eigenvalues --    1.64360   1.66585   1.75125   1.78921   1.79466
 Alpha virt. eigenvalues --    1.80132   1.82771   1.84354   1.88895   1.92366
 Alpha virt. eigenvalues --    1.96573   1.98259   1.99852   1.99935   2.05367
 Alpha virt. eigenvalues --    2.08389   2.09419   2.10026   2.11720   2.14494
 Alpha virt. eigenvalues --    2.16025   2.19753   2.22691   2.30506   2.33071
 Alpha virt. eigenvalues --    2.35929   2.42276   2.43259   2.44446   2.44477
 Alpha virt. eigenvalues --    2.47064   2.47156   2.49173   2.52748   2.61435
 Alpha virt. eigenvalues --    2.61769   2.69032   2.71364   3.07246   3.44543
 Alpha virt. eigenvalues --    3.56776   3.62493   3.79351   3.81498   3.87714
 Alpha virt. eigenvalues --    3.97836   3.99154   4.05921   4.06576   4.14806
 Alpha virt. eigenvalues --    4.17639   4.20092   4.20132   4.20996   4.25095
 Alpha virt. eigenvalues --    4.26115   4.27406   4.28550   4.31182   4.34942
 Alpha virt. eigenvalues --    4.35013   4.37863   4.38747   4.41749   4.43628
 Alpha virt. eigenvalues --    4.46128   4.49631   4.56049   4.57632   4.59158
 Alpha virt. eigenvalues --    4.59237   4.59947   4.63668   4.64153   4.71280
 Alpha virt. eigenvalues --    4.75178   4.75804   4.77382   4.84986   4.85311
 Alpha virt. eigenvalues --    4.90192   4.96041   4.97060   4.97185   5.00297
 Alpha virt. eigenvalues --    5.00562   5.05514   5.06135   5.13971   5.18810
 Alpha virt. eigenvalues --    5.19936   5.20172   5.27085   5.31800   5.50313
 Alpha virt. eigenvalues --    5.66327   5.67027   5.79911   5.80893   5.89506
 Alpha virt. eigenvalues --    5.90393   5.91051   5.92696   5.99965   6.00488
 Alpha virt. eigenvalues --    6.15206   6.31930   6.34311   6.37957   6.40462
 Alpha virt. eigenvalues --    6.45001   6.51962   6.54398   6.73800   6.82779
 Alpha virt. eigenvalues --    6.95544   6.99374   7.05024   7.10291   7.77489
 Alpha virt. eigenvalues --    7.78801   7.81189   7.88605  17.66440  18.49732
          Condensed to atoms (all electrons):
               1          2          3          4          5          6
     1  N    6.768083   0.259799  -0.042012  -0.001292  -0.000456  -0.000456
     2  H    0.259799   0.399982  -0.014676   0.001588   0.000586   0.000586
     3  N   -0.042012  -0.014676   6.156211   0.407350   0.405586   0.405586
     4  H   -0.001292   0.001588   0.407350   0.486694  -0.009480  -0.009480
     5  H   -0.000456   0.000586   0.405586  -0.009480   0.488274  -0.011661
     6  H   -0.000456   0.000586   0.405586  -0.009480  -0.011661   0.488274
     7  H    0.359078   0.004745   0.001339  -0.000339   0.000129  -0.000764
     8  H    0.359078   0.004745   0.001339  -0.000339  -0.000764   0.000129
               7          8
     1  N    0.359078   0.359078
     2  H    0.004745   0.004745
     3  N    0.001339   0.001339
     4  H   -0.000339  -0.000339
     5  H    0.000129  -0.000764
     6  H   -0.000764   0.000129
     7  H    0.491933  -0.005635
     8  H   -0.005635   0.491933
 Mulliken charges:
               1
     1  N   -0.701820
     2  H    0.342644
     3  N   -0.320724
     4  H    0.125299
     5  H    0.127787
     6  H    0.127787
     7  H    0.149514
     8  H    0.149514
 Sum of Mulliken charges =  -0.00000
 Mulliken charges with hydrogens summed into heavy atoms:
               1
     1  N   -0.060148
     3  N    0.060148
 Electronic spatial extent (au):  <R**2>=            200.8882
 Charge=             -0.0000 electrons
 Dipole moment (field-independent basis, Debye):
    X=              1.2465    Y=             -3.0882    Z=             -0.0000  Tot=              3.3303
 Quadrupole moment (field-independent basis, Debye-Ang):
   XX=            -14.9210   YY=            -14.0874   ZZ=            -12.4985
   XY=              3.2007   XZ=             -0.0000   YZ=             -0.0000
 Traceless Quadrupole moment (field-independent basis, Debye-Ang):
   XX=             -1.0854   YY=             -0.2517   ZZ=              1.3371
   XY=              3.2007   XZ=             -0.0000   YZ=             -0.0000
 Octapole moment (field-independent basis, Debye-Ang**2):
  XXX=             -0.3846  YYY=            -11.1829  ZZZ=             -0.0000  XYY=              6.8312
  XXY=             -4.9757  XXZ=              0.0000  XZZ=              1.9957  YZZ=             -1.3098
  YYZ=              0.0000  XYZ=             -0.0000
 Hexadecapole moment (field-independent basis, Debye-Ang**3):
 XXXX=            -21.9360 YYYY=           -216.6985 ZZZZ=            -20.1999 XXXY=              0.6450
 XXXZ=              0.0000 YYYX=              7.5064 YYYZ=              0.0000 ZZZX=             -0.0000
 ZZZY=              0.0000 XXYY=            -37.3915 XXZZ=             -7.0900 YYZZ=            -29.6432
 XXYZ=              0.0000 YYXZ=              0.0000 ZZXY=             -0.5694
 N-N= 4.229706386441D+01 E-N=-3.485318019519D+02  KE= 1.123530430765D+02
 Symmetry A'   KE= 1.071614425023D+02
 Symmetry A"   KE= 5.191600574205D+00
 Breneman (CHELPG) radii used.
 Generate Potential Derived Charges using the Breneman model, NDens= 1.
 Grid spacing= 0.300 Box extension= 2.800
 NStep X,Y,Z=   25     31     26   Total possible points=       20150
 Number of Points to Fit=    7404

 **********************************************************************

            Electrostatic Properties Using The SCF Density

 **********************************************************************

       Atomic Center    1 is at  -0.045591  1.485160  0.000000
       Atomic Center    2 is at  -0.045591  0.468360  0.000000
       Atomic Center    3 is at  -0.045591 -1.329540 -0.000000
       Atomic Center    4 is at  -1.024092 -1.590493 -0.000000
       Atomic Center    5 is at   0.372272 -1.766184  0.812335
       Atomic Center    6 is at   0.372272 -1.766184 -0.812335
       Atomic Center    7 is at   0.481706  1.782579  0.810953
       Atomic Center    8 is at   0.481706  1.782579 -0.810953
    7404 points will be used for fitting atomic charges
 Fitting point charges to electrostatic potential
 Charges from ESP fit, RMS=   0.00384 RRMS=   0.18435:
 ESP charges:
               1
     1  N   -1.047964
     2  H    0.405118
     3  N   -0.754711
     4  H    0.286433
     5  H    0.255741
     6  H    0.255741
     7  H    0.299821
     8  H    0.299821
 Sum of ESP charges =  -0.00000
 ESP charges with hydrogens summed into heavy atoms:
               1
     1  N   -0.043204
     3  N    0.043204
 Charge=  -0.00000 Dipole=     1.1991    -3.1378    -0.0000 Tot=     3.3591
 -----------------------------------------------------------------

              Electrostatic Properties (Atomic Units)

 -----------------------------------------------------------------
    Center     Electric         -------- Electric Field --------
               Potential          X             Y             Z
 -----------------------------------------------------------------
    1 Atom    -18.422938
    2 Atom     -1.103988
    3 Atom    -18.360459
    4 Atom     -1.047385
    5 Atom     -1.046734
    6 Atom     -1.046734
    7 Atom     -1.104535
    8 Atom     -1.104535
 -----------------------------------------------------------------
 Calling FoFJK, ICntrl=  10002127 FMM=F ISym2X=1 I1Cent= 0 IOpClX= 0 NMat=1 NMatS=1 NMatT=0.
 ***** Axes restored to original set *****
 -------------------------------------------------------------------
 Center     Atomic                   Forces (Hartrees/Bohr)
 Number     Number              X              Y              Z
 -------------------------------------------------------------------
      1        7          -0.010650849    0.000000000   -0.001202014
      2        1          -0.001907178   -0.000000000    0.002176388
      3        7           0.014046873   -0.000000000   -0.001270355
      4        1           0.000603705    0.000000000   -0.000487527
      5        1           0.000485161   -0.000267151    0.000182448
      6        1           0.000485161    0.000267151    0.000182448
      7        1          -0.001531437   -0.000065372    0.000209306
      8        1          -0.001531437    0.000065372    0.000209306
 -------------------------------------------------------------------
 Cartesian Forces:  Max     0.014046873 RMS     0.003698293
 -----------------------------------------------------------------------------------------------
                       Internal Coordinate Forces (Hartree/Bohr or radian)
  Cent   Atom   N1       Length/X         N2         Alpha/Y        N3         Beta/Z          J
 -----------------------------------------------------------------------------------------------
      1  N 
         X        1   0.000000(     1)
      2  H        1  -0.001907(     2)      2  -0.006999(     9)
      3  N        1   0.015621(     3)      2   0.006999(    10)      3   0.000000(    16)     0
      4  H        4   0.000627(     4)      1   0.000411(    11)      2  -0.000000(    17)     0
      5  H        4   0.000499(     5)      5  -0.000184(    12)      1   0.000524(    18)     0
      6  H        4   0.000499(     6)      5  -0.000184(    13)      1  -0.000524(    19)     0
      7  H        1   0.000612(     7)      3   0.002704(    14)      5   0.000256(    20)     0
      8  H        1   0.000612(     8)      3   0.002704(    15)      5  -0.000256(    21)     0
 -----------------------------------------------------------------------------------------------
 Internal  Forces:  Max     0.015620900 RMS     0.004156425

 GradGradGradGradGradGradGradGradGradGradGradGradGradGradGradGradGradGrad
 Berny optimization.
 Search for a local minimum.
 Step number   1 out of a maximum of  100
 All quantities printed in internal units (Hartrees-Bohrs-Radians)
 Second derivative matrix not updated -- first step.
 The second derivative matrix:
                          R1        R2        R3        A1        A2
           R1           0.45523
           R2          -0.00000   0.91113
           R3          -0.00000   0.00000   0.91279
           A1          -0.00000   0.00000   0.00000   0.23382
           A2           0.00000   0.00000   0.00000   0.07834   0.51480
           A3           0.00000  -0.00000  -0.00000   0.00000   0.00000
           D1          -0.00000  -0.00000   0.00000  -0.12211   0.11169
           D2           0.00000  -0.00000  -0.00000   0.00000   0.00000
           Rah          0.00000  -0.00000   0.00000  -0.00000  -0.00000
           Rab         -0.00000  -0.00000   0.00000   0.00000  -0.00000
                          A3        D1        D2        Rah       Rab
           A3           0.74921
           D1          -0.00000   0.73202
           D2           0.22845   0.00000   0.50150
           Rah         -0.00000   0.00000  -0.00000   0.44853
           Rab         -0.00000  -0.00000  -0.00000  -0.00000   0.02285
 ITU=  0
     Eigenvalues ---    0.17394   0.36549   0.44853   0.45523   0.51443
     Eigenvalues ---    0.79227   0.88522   0.91113   0.912791000.00000
 RFO step:  Lambda=-5.82541726D-05 EMin= 1.73937440D-01
 Linear search not attempted -- first point.
 Maximum step size (   0.010) exceeded in Quadratic search.
    -- Step size scaled by   0.932
 Variable       Old X    -DE/DX   Delta X   Delta X   Delta X     New X
                                 (Linear)    (Quad)   (Total)
    R1        1.91373   0.00063   0.00000   0.00128   0.00128   1.91501
    R2        1.91335   0.00100   0.00000   0.00102   0.00102   1.91437
    R3        1.91240   0.00122   0.00000   0.00125   0.00125   1.91365
    A1        1.83142   0.00041   0.00000   0.00330   0.00330   1.83472
    A2        1.86256  -0.00037   0.00000  -0.00163  -0.00163   1.86093
    A3        1.86909   0.00541   0.00000   0.00748   0.00748   1.87657
    D1        2.14852   0.00105   0.00000   0.00213   0.00213   2.15065
    D2        2.14733   0.00051   0.00000  -0.00246  -0.00246   2.14487
   Rah        1.92147  -0.00191   0.00000  -0.00396  -0.00396   1.91751
   Rab        5.31901   0.01562   0.00000   0.00000   0.00000   5.31901
         Item               Value     Threshold  Converged?
 Maximum Force            0.005409     0.000450     NO 
 RMS     Force            0.002040     0.000300     NO 
 Maximum Displacement     0.007478     0.001800     NO 
 RMS     Displacement     0.003162     0.001200     NO 
 Predicted change in Energy=-2.899248D-05
 GradGradGradGradGradGradGradGradGradGradGradGradGradGradGradGradGradGrad

 ---------------------------------------------------------------------------------------------------
                            Z-MATRIX (ANGSTROMS AND DEGREES)
   CD    Cent   Atom    N1       Length/X        N2       Alpha/Y        N3        Beta/Z          J
 ---------------------------------------------------------------------------------------------------
      1      1  N 
      2         X        1   1.000000(     1)
      3      2  H        1   1.014703(     2)      2   90.000(     9)
      4      3  N        1   2.814700(     3)      2   90.000(    10)      3    0.000(    16)      0
      5      4  H        4   1.013379(     4)      1  105.121(    11)      2  180.000(    17)      0
      6      5  H        4   1.013040(     5)      5  106.623(    12)      1  123.223(    18)      0
      7      6  H        4   1.013040(     6)      5  106.623(    13)      1 -123.223(    19)      0
      8      7  H        1   1.012661(     7)      3  107.520(    14)      5  122.892(    20)      0
      9      8  H        1   1.012661(     8)      3  107.520(    15)      5 -122.892(    21)      0
 ---------------------------------------------------------------------------------------------------
                         Z-Matrix orientation:                         
 ---------------------------------------------------------------------
 Center     Atomic      Atomic             Coordinates (Angstroms)
 Number     Number       Type             X           Y           Z
 ---------------------------------------------------------------------
      1          7           0        0.000000    0.000000    0.000000
      2         -1           0        0.000000    0.000000    1.000000
      3          1           0        1.014703    0.000000    0.000000
      4          7           0        2.814700    0.000000    0.000000
      5          1           0        3.079057   -0.000000   -0.978291
      6          1           0        3.252534   -0.812032    0.418516
      7          1           0        3.252534    0.812032    0.418516
      8          1           0       -0.304842   -0.810884    0.524424
      9          1           0       -0.304842    0.810884    0.524424
 ---------------------------------------------------------------------
                    Distance matrix (angstroms):
                    1          2          3          4          5
     1  N    0.000000
     2  X    1.000000   0.000000
     3  H    1.014703   1.424648   0.000000
     4  N    2.814700   2.987061   1.799997   0.000000
     5  H    3.230734   3.659812   2.284427   1.013379   0.000000
     6  H    3.378392   3.402425   2.417114   1.013040   1.624979
     7  H    3.378392   3.402425   2.417114   1.013040   1.624979
     8  H    1.012661   0.988248   1.635161   3.265593   3.790311
     9  H    1.012661   0.988248   1.635161   3.265593   3.790311
                    6          7          8          9
     6  H    0.000000
     7  H    1.624064   0.000000
     8  H    3.558953   3.911522   0.000000
     9  H    3.911522   3.558953   1.621768   0.000000
 Stoichiometry    H6N2
 Framework group  CS[SG(H2N2),X(H4)]
 Deg. of freedom    11
 Full point group                 CS      NOp   2
 Largest Abelian subgroup         CS      NOp   2
 Largest concise Abelian subgroup CS      NOp   2
                         Standard orientation:                         
 ---------------------------------------------------------------------
 Center     Atomic      Atomic             Coordinates (Angstroms)
 Number     Number       Type             X           Y           Z
 ---------------------------------------------------------------------
      1          7           0       -0.045379    1.484602    0.000000
      2          1           0       -0.045379    0.469899    0.000000
      3          7           0       -0.045379   -1.330098   -0.000000
      4          1           0       -1.023670   -1.594454   -0.000000
      5          1           0        0.373136   -1.767932    0.812032
      6          1           0        0.373136   -1.767932   -0.812032
      7          1           0        0.479044    1.789445    0.810884
      8          1           0        0.479044    1.789445   -0.810884
 ---------------------------------------------------------------------
 Rotational constants (GHZ):         113.6352517           6.9239749           6.8431990
 Standard basis: Aug-CC-pVTZ (5D, 7F)
 There are   160 symmetry adapted cartesian basis functions of A'  symmetry.
 There are   100 symmetry adapted cartesian basis functions of A"  symmetry.
 There are   138 symmetry adapted basis functions of A'  symmetry.
 There are    92 symmetry adapted basis functions of A"  symmetry.
   230 basis functions,   306 primitive gaussians,   260 cartesian basis functions
    10 alpha electrons       10 beta electrons
       nuclear repulsion energy        42.2805048532 Hartrees.
 NAtoms=    8 NActive=    8 NUniq=    6 SFac= 1.78D+00 NAtFMM=   60 NAOKFM=F Big=F
 Integral buffers will be    131072 words long.
 Raffenetti 1 integral format.
 Two-electron integral symmetry is turned on.
 One-electron integrals computed using PRISM.
 NBasis=   230 RedAO= T EigKep=  9.27D-05  NBF=   138    92
 NBsUse=   230 1.00D-06 EigRej= -1.00D+00 NBFU=   138    92
 Initial guess from the checkpoint file:  "/gscratch/scrubbed/gds001/Gau-17404.chk"
 B after Tr=    -0.000000    0.000000    0.000000
         Rot=    1.000000   -0.000000   -0.000000   -0.000250 Ang=  -0.03 deg.
 Initial guess orbital symmetries:
       Occupied  (A') (A') (A') (A') (A') (A") (A') (A") (A') (A')
       Virtual   (A') (A") (A') (A') (A") (A') (A') (A') (A") (A')
                 (A') (A') (A") (A') (A") (A') (A") (A') (A") (A')
                 (A') (A") (A") (A') (A') (A') (A") (A') (A") (A')
                 (A") (A') (A') (A") (A') (A") (A') (A') (A") (A')
                 (A") (A') (A") (A') (A') (A') (A") (A') (A') (A')
                 (A") (A') (A') (A") (A") (A') (A') (A") (A') (A')
                 (A") (A") (A') (A") (A') (A') (A") (A') (A") (A")
                 (A') (A") (A') (A") (A') (A") (A') (A') (A") (A')
                 (A") (A') (A") (A') (A') (A") (A') (A') (A") (A')
                 (A') (A') (A") (A") (A') (A') (A') (A") (A') (A")
                 (A") (A') (A") (A') (A') (A') (A") (A") (A') (A')
                 (A') (A") (A") (A') (A') (A") (A') (A') (A") (A")
                 (A') (A") (A') (A') (A") (A') (A") (A') (A') (A")
                 (A') (A') (A") (A') (A') (A') (A") (A") (A') (A')
                 (A') (A") (A") (A') (A") (A') (A') (A") (A") (A')
                 (A") (A') (A") (A") (A") (A') (A') (A") (A') (A')
                 (A") (A') (A") (A') (A') (A') (A") (A") (A') (A')
                 (A") (A') (A') (A") (A') (A') (A") (A') (A") (A')
                 (A") (A') (A") (A') (A") (A') (A") (A') (A') (A')
                 (A') (A") (A') (A") (A') (A') (A") (A') (A') (A")
                 (A') (A') (A") (A") (A") (A') (A") (A') (A') (A')
                 (A") (A') (A") (A') (A") (A") (A') (A') (A') (A')
 Keep R1 ints in memory in symmetry-blocked form, NReq=529702483.
 Requested convergence on RMS density matrix=1.00D-08 within 128 cycles.
 Requested convergence on MAX density matrix=1.00D-06.
 Requested convergence on             energy=1.00D-06.
 No special actions if energy rises.
 SCF Done:  E(RHF) =  -112.434356817     A.U. after    8 cycles
            NFock=  8  Conv=0.20D-08     -V/T= 2.0008
 ExpMin= 2.53D-02 ExpMax= 1.14D+04 ExpMxC= 3.89D+02 IAcc=3 IRadAn=         5 AccDes= 0.00D+00
 HarFok:  IExCor=  205 AccDes= 0.00D+00 IRadAn=         5 IDoV=-2 UseB2=F ITyADJ=14
 ICtDFT= 12500011 ScaDFX=  1.000000  1.000000  1.000000  1.000000
 Range of M.O.s used for correlation:     3   230
 NBasis=   230 NAE=    10 NBE=    10 NFC=     2 NFV=     0
 NROrb=    228 NOA=     8 NOB=     8 NVA=   220 NVB=   220

 **** Warning!!: The largest alpha MO coefficient is  0.28986351D+02

 Fully direct method using O(ONN) memory.
 JobTyp=1 Pass  1:  I=   3 to  10 NPSUse= 28 ParTrn=T ParDer=T DoDerP=T.
 Spin components of T(2) and E(2):
     alpha-alpha T2 =       0.1628877015D-01 E2=     -0.5466036141D-01
     alpha-beta  T2 =       0.1025153636D+00 E2=     -0.3771948622D+00
     beta-beta   T2 =       0.1628877015D-01 E2=     -0.5466036141D-01
 ANorm=    0.1065407389D+01
 E2 =    -0.4865155850D+00 EUMP2 =    -0.11292087240239D+03
          IDoAtm=11111111
          Differentiating once with respect to electric field.
                with respect to dipole field.
          Differentiating once with respect to nuclear coordinates.
 Keep R1 ints in memory in symmetry-blocked form, NReq=529703991.
          There are     1 degrees of freedom in the 1st order CPHF.  IDoFFX=0 NUNeed=     1.
 LinEq1:  Iter=  0 NonCon=     1 RMS=2.53D-03 Max=2.77D-02 NDo=     1
 AX will form     1 AO Fock derivatives at one time.
 LinEq1:  Iter=  1 NonCon=     1 RMS=6.93D-04 Max=6.52D-03 NDo=     1
 LinEq1:  Iter=  2 NonCon=     1 RMS=2.83D-04 Max=3.44D-03 NDo=     1
 LinEq1:  Iter=  3 NonCon=     1 RMS=3.55D-05 Max=2.80D-04 NDo=     1
 LinEq1:  Iter=  4 NonCon=     1 RMS=7.08D-06 Max=8.36D-05 NDo=     1
 LinEq1:  Iter=  5 NonCon=     1 RMS=2.11D-06 Max=2.15D-05 NDo=     1
 LinEq1:  Iter=  6 NonCon=     1 RMS=7.79D-07 Max=7.86D-06 NDo=     1
 LinEq1:  Iter=  7 NonCon=     1 RMS=1.57D-07 Max=1.77D-06 NDo=     1
 LinEq1:  Iter=  8 NonCon=     1 RMS=2.66D-08 Max=2.94D-07 NDo=     1
 LinEq1:  Iter=  9 NonCon=     1 RMS=5.19D-09 Max=5.72D-08 NDo=     1
 LinEq1:  Iter= 10 NonCon=     1 RMS=7.91D-10 Max=7.19D-09 NDo=     1
 LinEq1:  Iter= 11 NonCon=     1 RMS=1.16D-10 Max=1.15D-09 NDo=     1
 LinEq1:  Iter= 12 NonCon=     0 RMS=2.07D-11 Max=2.21D-10 NDo=     1
 Linear equations converged to 1.000D-10 1.000D-09 after    12 iterations.
 End of Minotr F.D. properties file   721 does not exist.
 End of Minotr F.D. properties file   722 does not exist.
 End of Minotr F.D. properties file   788 does not exist.
 Calling FoFJK, ICntrl=  10002127 FMM=F ISym2X=1 I1Cent= 0 IOpClX= 0 NMat=1 NMatS=1 NMatT=0.
 ***** Axes restored to original set *****
 -------------------------------------------------------------------
 Center     Atomic                   Forces (Hartrees/Bohr)
 Number     Number              X              Y              Z
 -------------------------------------------------------------------
      1        7          -0.013454469   -0.000000000   -0.000721989
      2        1          -0.000439054   -0.000000000    0.002660388
      3        7           0.014654719   -0.000000000   -0.001416617
      4        1           0.000407563    0.000000000   -0.000028195
      5        1           0.000225585   -0.000048189    0.000023160
      6        1           0.000225585    0.000048189    0.000023160
      7        1          -0.000809965    0.000311585   -0.000269954
      8        1          -0.000809965   -0.000311585   -0.000269954
 -------------------------------------------------------------------
 Cartesian Forces:  Max     0.014654719 RMS     0.004120621
 -----------------------------------------------------------------------------------------------
                       Internal Coordinate Forces (Hartree/Bohr or radian)
  Cent   Atom   N1       Length/X         N2         Alpha/Y        N3         Beta/Z          J
 -----------------------------------------------------------------------------------------------
      1  N 
         X        1   0.000000(     1)
      2  H        1  -0.000439(     2)      2  -0.007018(     9)
      3  N        1   0.015513(     3)      2   0.007018(    10)      3  -0.000000(    16)     0
      4  H        4   0.000134(     4)      1   0.000421(    11)      2   0.000000(    17)     0
      5  H        4   0.000146(     5)      5  -0.000156(    12)      1   0.000295(    18)     0
      6  H        4   0.000146(     6)      5  -0.000156(    13)      1  -0.000295(    19)     0
      7  H        1  -0.000145(     7)      3   0.001713(    14)      5  -0.000105(    20)     0
      8  H        1  -0.000145(     8)      3   0.001713(    15)      5   0.000105(    21)     0
 -----------------------------------------------------------------------------------------------
 Internal  Forces:  Max     0.015513452 RMS     0.004057632

 GradGradGradGradGradGradGradGradGradGradGradGradGradGradGradGradGradGrad
 Berny optimization.
 Search for a local minimum.
 Step number   2 out of a maximum of  100
 All quantities printed in internal units (Hartrees-Bohrs-Radians)
 Update second derivatives using D2CorN and points    1    2
 DE= -4.27D-05 DEPred=-2.90D-05 R= 1.47D+00
 TightC=F SS=  1.41D+00  RLast= 1.00D-02 DXNew= 1.6818D-02 3.0000D-02
 Trust test= 1.47D+00 RLast= 1.00D-02 DXMaxT set to 5.00D-02
 The second derivative matrix:
                          R1        R2        R3        A1        A2
           R1           0.45407
           R2          -0.00190   0.90885
           R3           0.00183   0.00051   0.91746
           A1          -0.00402  -0.00569   0.00372   0.22087
           A2           0.00258   0.00329  -0.00126   0.08629   0.51011
           A3          -0.02302  -0.02397  -0.00512  -0.06513   0.03570
           D1          -0.00430  -0.00503   0.00075  -0.13486   0.11899
           D2           0.00268   0.00399  -0.00307   0.00885  -0.00552
           Rah          0.00379   0.00601  -0.00548   0.01289  -0.00822
           Rab          0.00069   0.00055   0.00067   0.00177  -0.00088
                          A3        D1        D2        Rah       Rab
           A3           0.52047
           D1          -0.05204   0.72094
           D2           0.27515   0.00898   0.49550
           Rah          0.07218   0.01358  -0.00864   0.43626
           Rab          0.00402   0.00115  -0.00132  -0.00213   0.02285
 ITU=  1  0
     Eigenvalues ---    0.10090   0.25860   0.44462   0.45500   0.51333
     Eigenvalues ---    0.77748   0.80565   0.91086   0.918111000.00000
 RFO step:  Lambda=-2.19678740D-05 EMin= 1.00896604D-01
 Quartic linear search produced a step of  1.32088.
 Variable       Old X    -DE/DX   Delta X   Delta X   Delta X     New X
                                 (Linear)    (Quad)   (Total)
    R1        1.91501   0.00013   0.00169  -0.00083   0.00086   1.91587
    R2        1.91437   0.00029   0.00135  -0.00054   0.00081   1.91518
    R3        1.91365  -0.00029   0.00165  -0.00250  -0.00085   1.91280
    A1        1.83472   0.00042   0.00436   0.00508   0.00944   1.84416
    A2        1.86093  -0.00031  -0.00216  -0.00202  -0.00417   1.85675
    A3        1.87657   0.00343   0.00988   0.00463   0.01451   1.89108
    D1        2.15065   0.00059   0.00282   0.00159   0.00441   2.15506
    D2        2.14487  -0.00021  -0.00324  -0.00500  -0.00824   2.13663
   Rah        1.91751  -0.00044  -0.00523   0.00237  -0.00287   1.91464
   Rab        5.31901   0.01551   0.00000   0.00000   0.00000   5.31901
         Item               Value     Threshold  Converged?
 Maximum Force            0.003427     0.000450     NO 
 RMS     Force            0.001192     0.000300     NO 
 Maximum Displacement     0.014511     0.001800     NO 
 RMS     Displacement     0.006441     0.001200     NO 
 Predicted change in Energy=-3.001130D-05
 GradGradGradGradGradGradGradGradGradGradGradGradGradGradGradGradGradGrad

 ---------------------------------------------------------------------------------------------------
                            Z-MATRIX (ANGSTROMS AND DEGREES)
   CD    Cent   Atom    N1       Length/X        N2       Alpha/Y        N3        Beta/Z          J
 ---------------------------------------------------------------------------------------------------
      1      1  N 
      2         X        1   1.000000(     1)
      3      2  H        1   1.013186(     2)      2   90.000(     9)
      4      3  N        1   2.814700(     3)      2   90.000(    10)      3    0.000(    16)      0
      5      4  H        4   1.013835(     4)      1  105.662(    11)      2  180.000(    17)      0
      6      5  H        4   1.013470(     5)      5  106.384(    12)      1  123.476(    18)      0
      7      6  H        4   1.013470(     6)      5  106.384(    13)      1 -123.476(    19)      0
      8      7  H        1   1.012209(     7)      3  108.351(    14)      5  122.420(    20)      0
      9      8  H        1   1.012209(     8)      3  108.351(    15)      5 -122.420(    21)      0
 ---------------------------------------------------------------------------------------------------
                         Z-Matrix orientation:                         
 ---------------------------------------------------------------------
 Center     Atomic      Atomic             Coordinates (Angstroms)
 Number     Number       Type             X           Y           Z
 ---------------------------------------------------------------------
      1          7           0        0.000000    0.000000    0.000000
      2         -1           0        0.000000    0.000000    1.000000
      3          1           0        1.013186    0.000000    0.000000
      4          7           0        2.814700    0.000000    0.000000
      5          1           0        3.088404   -0.000000   -0.976191
      6          1           0        3.253926   -0.811024    0.420049
      7          1           0        3.253926    0.811024    0.420049
      8          1           0       -0.318680   -0.810997    0.515067
      9          1           0       -0.318680    0.810997    0.515067
 ---------------------------------------------------------------------
                    Distance matrix (angstroms):
                    1          2          3          4          5
     1  N    0.000000
     2  X    1.000000   0.000000
     3  H    1.013186   1.423568   0.000000
     4  N    2.814700   2.987061   1.801514   0.000000
     5  H    3.239010   3.666547   2.293355   1.013835   0.000000
     6  H    3.379680   3.403254   2.419735   1.013470   1.623158
     7  H    3.379680   3.403254   2.419735   1.013470   1.623158
     8  H    1.012209   0.997213   1.642218   3.277359   3.806546
     9  H    1.012209   0.997213   1.642218   3.277359   3.806546
                    6          7          8          9
     6  H    0.000000
     7  H    1.622048   0.000000
     8  H    3.573870   3.924729   0.000000
     9  H    3.924729   3.573870   1.621994   0.000000
 Stoichiometry    H6N2
 Framework group  CS[SG(H2N2),X(H4)]
 Deg. of freedom    11
 Full point group                 CS      NOp   2
 Largest Abelian subgroup         CS      NOp   2
 Largest concise Abelian subgroup CS      NOp   2
                         Standard orientation:                         
 ---------------------------------------------------------------------
 Center     Atomic      Atomic             Coordinates (Angstroms)
 Number     Number       Type             X           Y           Z
 ---------------------------------------------------------------------
      1          7           0       -0.044702    1.483749    0.000000
      2          1           0       -0.044702    0.470563    0.000000
      3          7           0       -0.044702   -1.330951   -0.000000
      4          1           0       -1.020893   -1.604655   -0.000000
      5          1           0        0.375347   -1.770177    0.811024
      6          1           0        0.375347   -1.770177   -0.811024
      7          1           0        0.470365    1.802430    0.810997
      8          1           0        0.470365    1.802430   -0.810997
 ---------------------------------------------------------------------
 Rotational constants (GHZ):         114.2027663           6.9125919           6.8305800
 Standard basis: Aug-CC-pVTZ (5D, 7F)
 There are   160 symmetry adapted cartesian basis functions of A'  symmetry.
 There are   100 symmetry adapted cartesian basis functions of A"  symmetry.
 There are   138 symmetry adapted basis functions of A'  symmetry.
 There are    92 symmetry adapted basis functions of A"  symmetry.
   230 basis functions,   306 primitive gaussians,   260 cartesian basis functions
    10 alpha electrons       10 beta electrons
       nuclear repulsion energy        42.2644364555 Hartrees.
 NAtoms=    8 NActive=    8 NUniq=    6 SFac= 1.78D+00 NAtFMM=   60 NAOKFM=F Big=F
 Integral buffers will be    131072 words long.
 Raffenetti 1 integral format.
 Two-electron integral symmetry is turned on.
 One-electron integrals computed using PRISM.
 NBasis=   230 RedAO= T EigKep=  9.25D-05  NBF=   138    92
 NBsUse=   230 1.00D-06 EigRej= -1.00D+00 NBFU=   138    92
 Initial guess from the checkpoint file:  "/gscratch/scrubbed/gds001/Gau-17404.chk"
 B after Tr=    -0.000000   -0.000000    0.000000
         Rot=    1.000000   -0.000000   -0.000000   -0.000709 Ang=  -0.08 deg.
 Initial guess orbital symmetries:
       Occupied  (A') (A') (A') (A') (A') (A") (A') (A") (A') (A')
       Virtual   (A') (A") (A') (A') (A") (A') (A') (A') (A") (A')
                 (A') (A') (A") (A') (A") (A') (A") (A') (A") (A')
                 (A') (A") (A") (A') (A') (A') (A") (A') (A") (A')
                 (A") (A') (A') (A") (A') (A") (A') (A') (A") (A')
                 (A") (A') (A") (A') (A') (A') (A") (A') (A') (A')
                 (A") (A') (A') (A") (A") (A') (A') (A") (A') (A')
                 (A") (A") (A') (A") (A') (A') (A") (A') (A") (A")
                 (A') (A") (A') (A") (A') (A") (A') (A') (A") (A')
                 (A") (A') (A") (A') (A') (A") (A') (A') (A") (A')
                 (A') (A') (A") (A") (A') (A') (A') (A") (A') (A")
                 (A") (A') (A") (A') (A') (A') (A") (A") (A') (A')
                 (A') (A") (A") (A') (A') (A") (A') (A') (A") (A")
                 (A') (A") (A') (A') (A") (A') (A") (A') (A') (A")
                 (A') (A') (A") (A') (A') (A') (A") (A") (A') (A')
                 (A') (A") (A") (A') (A") (A') (A') (A") (A") (A')
                 (A") (A') (A") (A") (A") (A') (A') (A") (A') (A')
                 (A") (A') (A") (A') (A') (A') (A") (A") (A') (A')
                 (A") (A') (A') (A") (A') (A') (A") (A') (A") (A')
                 (A") (A') (A") (A') (A") (A') (A") (A') (A') (A')
                 (A') (A") (A') (A") (A') (A') (A") (A') (A') (A")
                 (A') (A') (A") (A") (A") (A') (A") (A') (A') (A')
                 (A") (A') (A") (A') (A") (A") (A') (A') (A') (A')
 Keep R1 ints in memory in symmetry-blocked form, NReq=529702483.
 Requested convergence on RMS density matrix=1.00D-08 within 128 cycles.
 Requested convergence on MAX density matrix=1.00D-06.
 Requested convergence on             energy=1.00D-06.
 No special actions if energy rises.
 SCF Done:  E(RHF) =  -112.434453043     A.U. after    8 cycles
            NFock=  8  Conv=0.77D-08     -V/T= 2.0008
 ExpMin= 2.53D-02 ExpMax= 1.14D+04 ExpMxC= 3.89D+02 IAcc=3 IRadAn=         5 AccDes= 0.00D+00
 HarFok:  IExCor=  205 AccDes= 0.00D+00 IRadAn=         5 IDoV=-2 UseB2=F ITyADJ=14
 ICtDFT= 12500011 ScaDFX=  1.000000  1.000000  1.000000  1.000000
 Range of M.O.s used for correlation:     3   230
 NBasis=   230 NAE=    10 NBE=    10 NFC=     2 NFV=     0
 NROrb=    228 NOA=     8 NOB=     8 NVA=   220 NVB=   220

 **** Warning!!: The largest alpha MO coefficient is  0.28603088D+02

 Fully direct method using O(ONN) memory.
 JobTyp=1 Pass  1:  I=   3 to  10 NPSUse= 28 ParTrn=T ParDer=T DoDerP=T.
 Spin components of T(2) and E(2):
     alpha-alpha T2 =       0.1628400410D-01 E2=     -0.5465055143D-01
     alpha-beta  T2 =       0.1024955922D+00 E2=     -0.3771537388D+00
     beta-beta   T2 =       0.1628400410D-01 E2=     -0.5465055143D-01
 ANorm=    0.1065393636D+01
 E2 =    -0.4864548416D+00 EUMP2 =    -0.11292090788433D+03
          IDoAtm=11111111
          Differentiating once with respect to electric field.
                with respect to dipole field.
          Differentiating once with respect to nuclear coordinates.
 Keep R1 ints in memory in symmetry-blocked form, NReq=529703991.
          There are     1 degrees of freedom in the 1st order CPHF.  IDoFFX=0 NUNeed=     1.
 LinEq1:  Iter=  0 NonCon=     1 RMS=2.53D-03 Max=2.86D-02 NDo=     1
 AX will form     1 AO Fock derivatives at one time.
 LinEq1:  Iter=  1 NonCon=     1 RMS=6.93D-04 Max=6.71D-03 NDo=     1
 LinEq1:  Iter=  2 NonCon=     1 RMS=2.83D-04 Max=3.44D-03 NDo=     1
 LinEq1:  Iter=  3 NonCon=     1 RMS=3.57D-05 Max=2.79D-04 NDo=     1
 LinEq1:  Iter=  4 NonCon=     1 RMS=7.07D-06 Max=8.20D-05 NDo=     1
 LinEq1:  Iter=  5 NonCon=     1 RMS=2.04D-06 Max=2.09D-05 NDo=     1
 LinEq1:  Iter=  6 NonCon=     1 RMS=7.62D-07 Max=7.77D-06 NDo=     1
 LinEq1:  Iter=  7 NonCon=     1 RMS=1.56D-07 Max=1.73D-06 NDo=     1
 LinEq1:  Iter=  8 NonCon=     1 RMS=2.66D-08 Max=2.92D-07 NDo=     1
 LinEq1:  Iter=  9 NonCon=     1 RMS=5.21D-09 Max=5.71D-08 NDo=     1
 LinEq1:  Iter= 10 NonCon=     1 RMS=7.98D-10 Max=7.12D-09 NDo=     1
 LinEq1:  Iter= 11 NonCon=     1 RMS=1.17D-10 Max=1.15D-09 NDo=     1
 LinEq1:  Iter= 12 NonCon=     0 RMS=2.05D-11 Max=2.23D-10 NDo=     1
 Linear equations converged to 1.000D-10 1.000D-09 after    12 iterations.
 End of Minotr F.D. properties file   721 does not exist.
 End of Minotr F.D. properties file   722 does not exist.
 End of Minotr F.D. properties file   788 does not exist.
 Calling FoFJK, ICntrl=  10002127 FMM=F ISym2X=1 I1Cent= 0 IOpClX= 0 NMat=1 NMatS=1 NMatT=0.
 ***** Axes restored to original set *****
 -------------------------------------------------------------------
 Center     Atomic                   Forces (Hartrees/Bohr)
 Number     Number              X              Y              Z
 -------------------------------------------------------------------
      1        7          -0.015670093    0.000000000   -0.001573106
      2        1           0.000315679   -0.000000000    0.003500917
      3        7           0.015431875    0.000000000   -0.001543420
      4        1           0.000098085   -0.000000000    0.000054635
      5        1          -0.000092709   -0.000053813    0.000044785
      6        1          -0.000092709    0.000053813    0.000044785
      7        1           0.000004936    0.000138239   -0.000264298
      8        1           0.000004936   -0.000138239   -0.000264298
 -------------------------------------------------------------------
 Cartesian Forces:  Max     0.015670093 RMS     0.004569487
 -----------------------------------------------------------------------------------------------
                       Internal Coordinate Forces (Hartree/Bohr or radian)
  Cent   Atom   N1       Length/X         N2         Alpha/Y        N3         Beta/Z          J
 -----------------------------------------------------------------------------------------------
      1  N 
         X        1   0.000000(     1)
      2  H        1   0.000316(     2)      2  -0.007012(     9)
      3  N        1   0.015345(     3)      2   0.007012(    10)      3  -0.000000(    16)     0
      4  H        4  -0.000026(     4)      1   0.000431(    11)      2   0.000000(    17)     0
      5  H        4   0.000021(     5)      5   0.000124(    12)      1  -0.000173(    18)     0
      6  H        4   0.000021(     6)      5   0.000124(    13)      1   0.000173(    19)     0
      7  H        1  -0.000247(     7)      3   0.000147(    14)      5  -0.000271(    20)     0
      8  H        1  -0.000247(     8)      3   0.000147(    15)      5   0.000271(    21)     0
 -----------------------------------------------------------------------------------------------
 Internal  Forces:  Max     0.015344541 RMS     0.003990894

 GradGradGradGradGradGradGradGradGradGradGradGradGradGradGradGradGradGrad
 Berny optimization.
 Search for a local minimum.
 Step number   3 out of a maximum of  100
 All quantities printed in internal units (Hartrees-Bohrs-Radians)
 Update second derivatives using D2CorN and points    1    2    3
 DE= -3.55D-05 DEPred=-3.00D-05 R= 1.18D+00
 TightC=F SS=  1.41D+00  RLast= 2.04D-02 DXNew= 8.4090D-02 6.1105D-02
 Trust test= 1.18D+00 RLast= 2.04D-02 DXMaxT set to 6.11D-02
 The second derivative matrix:
                          R1        R2        R3        A1        A2
           R1           0.45510
           R2          -0.00141   0.90891
           R3           0.00395   0.00240   0.91696
           A1          -0.00022  -0.00531   0.01931   0.22244
           A2           0.00015   0.00248  -0.00808   0.07986   0.51556
           A3          -0.01900  -0.02529   0.02049  -0.07701   0.03182
           D1          -0.00166  -0.00417   0.00823  -0.12789   0.11308
           D2          -0.00020   0.00397  -0.01644   0.01021  -0.00122
           Rah          0.00014   0.00414  -0.01218  -0.00199   0.00082
           Rab          0.00086   0.00070   0.00067   0.00294  -0.00141
                          A3        D1        D2        Rah       Rab
           A3           0.47565
           D1          -0.04811   0.72734
           D2           0.28957   0.00432   0.49202
           Rah          0.05488   0.00376   0.00292   0.44909
           Rab          0.00598   0.00173  -0.00231  -0.00269   0.02285
 ITU=  1  1  0
     Eigenvalues ---    0.09392   0.24601   0.44937   0.45521   0.51451
     Eigenvalues ---    0.77326   0.80096   0.91086   0.918991000.00000
 RFO step:  Lambda=-2.76229539D-06 EMin= 9.39213632D-02
 Quartic linear search produced a step of  0.18925.
 Variable       Old X    -DE/DX   Delta X   Delta X   Delta X     New X
                                 (Linear)    (Quad)   (Total)
    R1        1.91587  -0.00003   0.00016  -0.00010   0.00006   1.91593
    R2        1.91518   0.00004   0.00015   0.00002   0.00017   1.91535
    R3        1.91280  -0.00049  -0.00016  -0.00064  -0.00080   1.91200
    A1        1.84416   0.00043   0.00179   0.00182   0.00361   1.84777
    A2        1.85675   0.00025  -0.00079   0.00046  -0.00033   1.85642
    A3        1.89108   0.00029   0.00275   0.00044   0.00319   1.89427
    D1        2.15506  -0.00035   0.00083  -0.00043   0.00041   2.15547
    D2        2.13663  -0.00054  -0.00156  -0.00155  -0.00311   2.13352
   Rah        1.91464   0.00032  -0.00054   0.00097   0.00043   1.91507
   Rab        5.31901   0.01534   0.00000   0.00000   0.00000   5.31901
         Item               Value     Threshold  Converged?
 Maximum Force            0.000541     0.000450     NO 
 RMS     Force            0.000348     0.000300     NO 
 Maximum Displacement     0.003609     0.001800     NO 
 RMS     Displacement     0.001844     0.001200     NO 
 Predicted change in Energy=-2.180316D-06
 GradGradGradGradGradGradGradGradGradGradGradGradGradGradGradGradGradGrad

 ---------------------------------------------------------------------------------------------------
                            Z-MATRIX (ANGSTROMS AND DEGREES)
   CD    Cent   Atom    N1       Length/X        N2       Alpha/Y        N3        Beta/Z          J
 ---------------------------------------------------------------------------------------------------
      1      1  N 
      2         X        1   1.000000(     1)
      3      2  H        1   1.013413(     2)      2   90.000(     9)
      4      3  N        1   2.814700(     3)      2   90.000(    10)      3    0.000(    16)      0
      5      4  H        4   1.013868(     4)      1  105.869(    11)      2  180.000(    17)      0
      6      5  H        4   1.013561(     5)      5  106.365(    12)      1  123.499(    18)      0
      7      6  H        4   1.013561(     6)      5  106.365(    13)      1 -123.499(    19)      0
      8      7  H        1   1.011787(     7)      3  108.534(    14)      5  122.242(    20)      0
      9      8  H        1   1.011787(     8)      3  108.534(    15)      5 -122.242(    21)      0
 ---------------------------------------------------------------------------------------------------
                         Z-Matrix orientation:                         
 ---------------------------------------------------------------------
 Center     Atomic      Atomic             Coordinates (Angstroms)
 Number     Number       Type             X           Y           Z
 ---------------------------------------------------------------------
      1          7           0        0.000000    0.000000    0.000000
      2         -1           0        0.000000    0.000000    1.000000
      3          1           0        1.013413    0.000000    0.000000
      4          7           0        2.814700    0.000000    0.000000
      5          1           0        3.091934   -0.000000   -0.975228
      6          1           0        3.252904   -0.810959    0.421461
      7          1           0        3.252904    0.810959    0.421461
      8          1           0       -0.321610   -0.811391    0.511785
      9          1           0       -0.321610    0.811391    0.511785
 ---------------------------------------------------------------------
                    Distance matrix (angstroms):
                    1          2          3          4          5
     1  N    0.000000
     2  X    1.000000   0.000000
     3  H    1.013413   1.423730   0.000000
     4  N    2.814700   2.987061   1.801287   0.000000
     5  H    3.242087   3.669003   2.295936   1.013868   0.000000
     6  H    3.378856   3.402020   2.418802   1.013561   1.623055
     7  H    3.378856   3.402020   2.418802   1.013561   1.623055
     8  H    1.011787   1.000071   1.643949   3.279744   3.810755
     9  H    1.011787   1.000071   1.643949   3.279744   3.810755
                    6          7          8          9
     6  H    0.000000
     7  H    1.621918   0.000000
     8  H    3.575655   3.926491   0.000000
     9  H    3.926491   3.575655   1.622783   0.000000
 Stoichiometry    H6N2
 Framework group  CS[SG(H2N2),X(H4)]
 Deg. of freedom    11
 Full point group                 CS      NOp   2
 Largest Abelian subgroup         CS      NOp   2
 Largest concise Abelian subgroup CS      NOp   2
                         Standard orientation:                         
 ---------------------------------------------------------------------
 Center     Atomic      Atomic             Coordinates (Angstroms)
 Number     Number       Type             X           Y           Z
 ---------------------------------------------------------------------
      1          7           0       -0.044563    1.483542    0.000000
      2          1           0       -0.044563    0.470129    0.000000
      3          7           0       -0.044563   -1.331158   -0.000000
      4          1           0       -1.019791   -1.608392   -0.000000
      5          1           0        0.376898   -1.769362    0.810959
      6          1           0        0.376898   -1.769362   -0.810959
      7          1           0        0.467222    1.805152    0.811391
      8          1           0        0.467222    1.805152   -0.811391
 ---------------------------------------------------------------------
 Rotational constants (GHZ):         114.3170553           6.9108128           6.8282358
 Standard basis: Aug-CC-pVTZ (5D, 7F)
 There are   160 symmetry adapted cartesian basis functions of A'  symmetry.
 There are   100 symmetry adapted cartesian basis functions of A"  symmetry.
 There are   138 symmetry adapted basis functions of A'  symmetry.
 There are    92 symmetry adapted basis functions of A"  symmetry.
   230 basis functions,   306 primitive gaussians,   260 cartesian basis functions
    10 alpha electrons       10 beta electrons
       nuclear repulsion energy        42.2625201383 Hartrees.
 NAtoms=    8 NActive=    8 NUniq=    6 SFac= 1.78D+00 NAtFMM=   60 NAOKFM=F Big=F
 Integral buffers will be    131072 words long.
 Raffenetti 1 integral format.
 Two-electron integral symmetry is turned on.
 One-electron integrals computed using PRISM.
 NBasis=   230 RedAO= T EigKep=  9.24D-05  NBF=   138    92
 NBsUse=   230 1.00D-06 EigRej= -1.00D+00 NBFU=   138    92
 Initial guess from the checkpoint file:  "/gscratch/scrubbed/gds001/Gau-17404.chk"
 B after Tr=     0.000000    0.000000    0.000000
         Rot=    1.000000   -0.000000   -0.000000   -0.000282 Ang=  -0.03 deg.
 Initial guess orbital symmetries:
       Occupied  (A') (A') (A') (A') (A') (A") (A') (A") (A') (A')
       Virtual   (A') (A") (A') (A') (A") (A') (A') (A') (A") (A')
                 (A') (A') (A") (A") (A') (A') (A") (A') (A") (A')
                 (A') (A") (A") (A') (A') (A') (A") (A') (A") (A')
                 (A") (A') (A') (A") (A') (A") (A') (A') (A") (A')
                 (A") (A') (A") (A') (A') (A') (A") (A') (A') (A')
                 (A") (A') (A') (A") (A") (A') (A') (A") (A') (A')
                 (A") (A") (A') (A") (A') (A') (A") (A') (A") (A")
                 (A') (A") (A') (A") (A') (A') (A") (A') (A") (A')
                 (A") (A') (A") (A') (A') (A") (A') (A') (A") (A')
                 (A') (A') (A") (A") (A') (A') (A') (A") (A') (A")
                 (A") (A') (A") (A') (A') (A') (A") (A") (A') (A')
                 (A') (A") (A") (A') (A') (A") (A') (A') (A") (A")
                 (A') (A") (A') (A') (A") (A") (A') (A') (A') (A")
                 (A') (A') (A") (A') (A') (A') (A") (A") (A') (A')
                 (A') (A") (A") (A') (A") (A') (A') (A") (A") (A')
                 (A") (A') (A") (A") (A") (A') (A') (A") (A') (A')
                 (A") (A') (A") (A') (A') (A') (A") (A") (A') (A')
                 (A") (A') (A') (A") (A') (A') (A") (A") (A') (A')
                 (A") (A') (A") (A') (A") (A') (A") (A') (A') (A')
                 (A") (A') (A") (A') (A') (A') (A") (A') (A') (A")
                 (A') (A') (A") (A") (A") (A') (A') (A") (A') (A')
                 (A") (A') (A") (A') (A") (A") (A') (A') (A') (A')
 Keep R1 ints in memory in symmetry-blocked form, NReq=529702483.
 Requested convergence on RMS density matrix=1.00D-08 within 128 cycles.
 Requested convergence on MAX density matrix=1.00D-06.
 Requested convergence on             energy=1.00D-06.
 No special actions if energy rises.
 SCF Done:  E(RHF) =  -112.434468044     A.U. after    7 cycles
            NFock=  7  Conv=0.58D-08     -V/T= 2.0008
 ExpMin= 2.53D-02 ExpMax= 1.14D+04 ExpMxC= 3.89D+02 IAcc=3 IRadAn=         5 AccDes= 0.00D+00
 HarFok:  IExCor=  205 AccDes= 0.00D+00 IRadAn=         5 IDoV=-2 UseB2=F ITyADJ=14
 ICtDFT= 12500011 ScaDFX=  1.000000  1.000000  1.000000  1.000000
 Range of M.O.s used for correlation:     3   230
 NBasis=   230 NAE=    10 NBE=    10 NFC=     2 NFV=     0
 NROrb=    228 NOA=     8 NOB=     8 NVA=   220 NVB=   220

 **** Warning!!: The largest alpha MO coefficient is  0.28440317D+02

 Fully direct method using O(ONN) memory.
 JobTyp=1 Pass  1:  I=   3 to  10 NPSUse= 28 ParTrn=T ParDer=T DoDerP=T.
 Spin components of T(2) and E(2):
     alpha-alpha T2 =       0.1628312131D-01 E2=     -0.5465034967D-01
     alpha-beta  T2 =       0.1024863627D+00 E2=     -0.3771421433D+00
     beta-beta   T2 =       0.1628312131D-01 E2=     -0.5465034967D-01
 ANorm=    0.1065388476D+01
 E2 =    -0.4864428426D+00 EUMP2 =    -0.11292091088674D+03
          IDoAtm=11111111
          Differentiating once with respect to electric field.
                with respect to dipole field.
          Differentiating once with respect to nuclear coordinates.
 Keep R1 ints in memory in symmetry-blocked form, NReq=529703991.
          There are     1 degrees of freedom in the 1st order CPHF.  IDoFFX=0 NUNeed=     1.
 LinEq1:  Iter=  0 NonCon=     1 RMS=2.53D-03 Max=2.88D-02 NDo=     1
 AX will form     1 AO Fock derivatives at one time.
 LinEq1:  Iter=  1 NonCon=     1 RMS=6.93D-04 Max=6.75D-03 NDo=     1
 LinEq1:  Iter=  2 NonCon=     1 RMS=2.83D-04 Max=3.43D-03 NDo=     1
 LinEq1:  Iter=  3 NonCon=     1 RMS=3.57D-05 Max=2.79D-04 NDo=     1
 LinEq1:  Iter=  4 NonCon=     1 RMS=7.06D-06 Max=8.18D-05 NDo=     1
 LinEq1:  Iter=  5 NonCon=     1 RMS=2.03D-06 Max=2.09D-05 NDo=     1
 LinEq1:  Iter=  6 NonCon=     1 RMS=7.58D-07 Max=7.75D-06 NDo=     1
 LinEq1:  Iter=  7 NonCon=     1 RMS=1.56D-07 Max=1.72D-06 NDo=     1
 LinEq1:  Iter=  8 NonCon=     1 RMS=2.66D-08 Max=2.91D-07 NDo=     1
 LinEq1:  Iter=  9 NonCon=     1 RMS=5.21D-09 Max=5.72D-08 NDo=     1
 LinEq1:  Iter= 10 NonCon=     1 RMS=8.00D-10 Max=7.12D-09 NDo=     1
 LinEq1:  Iter= 11 NonCon=     1 RMS=1.17D-10 Max=1.15D-09 NDo=     1
 LinEq1:  Iter= 12 NonCon=     0 RMS=2.05D-11 Max=2.25D-10 NDo=     1
 Linear equations converged to 1.000D-10 1.000D-09 after    12 iterations.
 End of Minotr F.D. properties file   721 does not exist.
 End of Minotr F.D. properties file   722 does not exist.
 End of Minotr F.D. properties file   788 does not exist.
 Calling FoFJK, ICntrl=  10002127 FMM=F ISym2X=1 I1Cent= 0 IOpClX= 0 NMat=1 NMatS=1 NMatT=0.
 ***** Axes restored to original set *****
 -------------------------------------------------------------------
 Center     Atomic                   Forces (Hartrees/Bohr)
 Number     Number              X              Y              Z
 -------------------------------------------------------------------
      1        7          -0.015407359    0.000000000   -0.002138528
      2        1           0.000020464    0.000000000    0.003639344
      3        7           0.015529267   -0.000000000   -0.001495892
      4        1           0.000067349    0.000000000    0.000058369
      5        1          -0.000140205   -0.000020528    0.000024312
      6        1          -0.000140205    0.000020528    0.000024312
      7        1           0.000035345    0.000002614   -0.000055958
      8        1           0.000035345   -0.000002614   -0.000055958
 -------------------------------------------------------------------
 Cartesian Forces:  Max     0.015529267 RMS     0.004558230
 -----------------------------------------------------------------------------------------------
                       Internal Coordinate Forces (Hartree/Bohr or radian)
  Cent   Atom   N1       Length/X         N2         Alpha/Y        N3         Beta/Z          J
 -----------------------------------------------------------------------------------------------
      1  N 
         X        1   0.000000(     1)
      2  H        1   0.000020(     2)      2  -0.006969(     9)
      3  N        1   0.015316(     3)      2   0.006969(    10)      3   0.000000(    16)     0
      4  H        4  -0.000038(     4)      1   0.000418(    11)      2  -0.000000(    17)     0
      5  H        4  -0.000034(     5)      5   0.000142(    12)      1  -0.000217(    18)     0
      6  H        4  -0.000034(     6)      5   0.000142(    13)      1   0.000217(    19)     0
      7  H        1  -0.000042(     7)      3  -0.000045(    14)      5  -0.000083(    20)     0
      8  H        1  -0.000042(     8)      3  -0.000045(    15)      5   0.000083(    21)     0
 -----------------------------------------------------------------------------------------------
 Internal  Forces:  Max     0.015316205 RMS     0.003976497

 GradGradGradGradGradGradGradGradGradGradGradGradGradGradGradGradGradGrad
 Berny optimization.
 Search for a local minimum.
 Step number   4 out of a maximum of  100
 All quantities printed in internal units (Hartrees-Bohrs-Radians)
 Update second derivatives using D2CorN and points    1    2    3    4
 DE= -3.00D-06 DEPred=-2.18D-06 R= 1.38D+00
 TightC=F SS=  1.41D+00  RLast= 5.83D-03 DXNew= 1.0277D-01 1.7491D-02
 Trust test= 1.38D+00 RLast= 5.83D-03 DXMaxT set to 6.11D-02
 The second derivative matrix:
                          R1        R2        R3        A1        A2
           R1           0.45551
           R2          -0.00099   0.90943
           R3           0.00407   0.00234   0.91452
           A1           0.00239  -0.00236   0.03276   0.17723
           A2          -0.00138   0.00060  -0.00683   0.06378   0.52217
           A3          -0.01521  -0.02081   0.02995  -0.09391   0.01131
           D1           0.00029  -0.00165   0.00552  -0.10320   0.10458
           D2          -0.00278   0.00084  -0.02599   0.03877   0.01404
           Rah         -0.00065   0.00368  -0.01266  -0.00878   0.00252
           Rab          0.00088   0.00070   0.00079   0.00257  -0.00142
                          A3        D1        D2        Rah       Rab
           A3           0.48385
           D1          -0.01832   0.73815
           D2           0.29386  -0.01861   0.47634
           Rah          0.04851   0.00213   0.00828   0.45147
           Rab          0.00576   0.00174  -0.00198  -0.00282   0.02285
 ITU=  1  1  1  0
     Eigenvalues ---    0.06551   0.24785   0.44908   0.45528   0.50961
     Eigenvalues ---    0.77276   0.79925   0.91099   0.918351000.00000
 RFO step:  Lambda=-1.24150651D-06 EMin= 6.55054152D-02
 Quartic linear search produced a step of  0.52718.
 Variable       Old X    -DE/DX   Delta X   Delta X   Delta X     New X
                                 (Linear)    (Quad)   (Total)
    R1        1.91593  -0.00004   0.00003  -0.00012  -0.00008   1.91585
    R2        1.91535  -0.00007   0.00009  -0.00015  -0.00005   1.91530
    R3        1.91200  -0.00008  -0.00042   0.00011  -0.00031   1.91169
    A1        1.84777   0.00042   0.00190   0.00157   0.00348   1.85124
    A2        1.85642   0.00028  -0.00018   0.00050   0.00032   1.85674
    A3        1.89427  -0.00009   0.00168  -0.00042   0.00127   1.89554
    D1        2.15547  -0.00043   0.00021  -0.00051  -0.00030   2.15517
    D2        2.13352  -0.00017  -0.00164   0.00016  -0.00147   2.13205
   Rah        1.91507   0.00002   0.00023  -0.00022   0.00000   1.91508
   Rab        5.31901   0.01532   0.00000   0.00000   0.00000   5.31901
         Item               Value     Threshold  Converged?
 Maximum Force            0.000435     0.000450     YES
 RMS     Force            0.000234     0.000300     YES
 Maximum Displacement     0.003475     0.001800     NO 
 RMS     Displacement     0.001271     0.001200     NO 
 Predicted change in Energy=-8.085463D-07
 GradGradGradGradGradGradGradGradGradGradGradGradGradGradGradGradGradGrad

 ---------------------------------------------------------------------------------------------------
                            Z-MATRIX (ANGSTROMS AND DEGREES)
[...]
 Update second derivatives using D2CorN and points    1    3
 DE= -5.82D-07 DEPred=-3.79D-07 R= 1.54D+00
 Trust test= 1.54D+00 RLast= 1.15D-03 DXMaxT set to 5.00D-02
 The second derivative matrix:
                          R1        R2        R3        A1        A2
           R1           0.45502
           R2          -0.00044   0.91067
           R3          -0.00061  -0.00033   0.91298
           A1          -0.00010  -0.00017  -0.00014   0.23308
           A2           0.00097   0.00067  -0.00001   0.07795   0.51400
           A3          -0.00648  -0.00507  -0.00142  -0.00230   0.00508
           D1          -0.00146  -0.00102  -0.00005  -0.12205   0.11414
           D2          -0.00069  -0.00071  -0.00058  -0.00021   0.00103
           Rah          0.00099  -0.00238  -0.00628   0.00012   0.00845
           Rab         -0.00000  -0.00000   0.00000  -0.00000   0.00000
                          A3        D1        D2        Rah       Rab
           A3           0.70412
           D1          -0.00784   0.73107
           D2           0.22063  -0.00158   0.50038
           Rah         -0.05072  -0.01263  -0.00374   0.48725
           Rab         -0.00000  -0.00000  -0.00000  -0.00000   0.00100
 ITU=  0  1  0
     Eigenvalues ---    0.17284   0.35452   0.45497   0.48207   0.51625
     Eigenvalues ---    0.79292   0.85090   0.91099   0.913111000.00000
 RFO step:  Lambda=-2.27416276D-07 EMin= 1.72835492D-01
 Quartic linear search produced a step of  1.43767.
 Variable       Old X    -DE/DX   Delta X   Delta X   Delta X     New X
                                 (Linear)    (Quad)   (Total)
    R1        1.91274  -0.00001  -0.00007  -0.00003  -0.00010   1.91264
    R2        1.91274  -0.00003  -0.00008  -0.00002  -0.00009   1.91265
    R3        1.91245   0.00004  -0.00017   0.00027   0.00010   1.91255
    A1        1.83095  -0.00000  -0.00039  -0.00021  -0.00059   1.83036
    A2        1.86296   0.00005   0.00042   0.00009   0.00051   1.86347
    A3        1.86501  -0.00035  -0.00144  -0.00010  -0.00153   1.86347
    D1        2.14796  -0.00009  -0.00041  -0.00012  -0.00052   2.14744
    D2        2.14646   0.00002   0.00026   0.00057   0.00083   2.14728
   Rah        1.91228   0.00008   0.00027   0.00008   0.00035   1.91263
   Rab       40.27895  -0.00000   0.00000   0.00000   0.00000  40.27895
         Item               Value     Threshold  Converged?
 Maximum Force            0.000348     0.000450     YES
 RMS     Force            0.000126     0.000300     YES
 Maximum Displacement     0.001534     0.001800     YES
 RMS     Displacement     0.000639     0.001200     YES
 Predicted change in Energy=-2.258168D-07
 Optimization completed.
    -- Stationary point found.
                       ----------------------------
                       !   Optimized Parameters   !
                       ! (Angstroms and Degrees)  !
 ----------------------                            ----------------------
 !      Name          Value   Derivative information (Atomic Units)     !
 ------------------------------------------------------------------------
 !       R1          1.0122   -DE/DX =    0.0                           !
 !       R2          1.0122   -DE/DX =    0.0                           !
 !       R3          1.012    -DE/DX =    0.0                           !
 !       A1        104.9058   -DE/DX =    0.0                           !
 !       A2        106.7398   -DE/DX =    0.0001                        !
 !       A3        106.857    -DE/DX =   -0.0003                        !
 !       D1        123.0693   -DE/DX =   -0.0001                        !
 !       D2        122.983    -DE/DX =    0.0                           !
 !       Rah         1.0119   -DE/DX =    0.0001                        !
 !       Rab        21.3147   -DE/DX =    0.0                           !
 ------------------------------------------------------------------------
 GradGradGradGradGradGradGradGradGradGradGradGradGradGradGradGradGradGrad

 ---------------------------------------------------------------------------------------------------
                            Z-MATRIX (ANGSTROMS AND DEGREES)
   CD    Cent   Atom    N1       Length/X        N2       Alpha/Y        N3        Beta/Z          J
 ---------------------------------------------------------------------------------------------------
      1      1  N 
      2         X        1   1.000000(     1)
      3      2  H        1   1.011934(     2)      2   90.000(     9)
      4      3  N        1  21.314700(     3)      2   90.000(    10)      3    0.000(    16)      0
      5      4  H        4   1.012176(     4)      1  104.906(    11)      2  180.000(    17)      0
      6      5  H        4   1.012177(     5)      5  106.740(    12)      1  123.069(    18)      0
      7      6  H        4   1.012177(     6)      5  106.740(    13)      1 -123.069(    19)      0
      8      7  H        1   1.012024(     7)      3  106.857(    14)      5  122.983(    20)      0
      9      8  H        1   1.012024(     8)      3  106.857(    15)      5 -122.983(    21)      0
 ---------------------------------------------------------------------------------------------------
                         Z-Matrix orientation:                         
 ---------------------------------------------------------------------
 Center     Atomic      Atomic             Coordinates (Angstroms)
 Number     Number       Type             X           Y           Z
 ---------------------------------------------------------------------
      1          7           0        0.000000    0.000000    0.000000
      2         -1           0        0.000000    0.000000    1.000000
      3          1           0        1.011934    0.000000    0.000000
      4          7           0       21.314700    0.000000    0.000000
      5          1           0       21.575063   -0.000000   -0.978116
      6          1           0       21.750804   -0.812271    0.417771
      7          1           0       21.750804    0.812271    0.417771
      8          1           0       -0.293471   -0.812441    0.527263
      9          1           0       -0.293471    0.812441    0.527263
 ---------------------------------------------------------------------
                    Distance matrix (angstroms):
                    1          2          3          4          5
     1  N    0.000000
     2  X    1.000000   0.000000
     3  H    1.011934   1.422677   0.000000
     4  N   21.314700  21.338145  20.302766   0.000000
     5  H   21.597224  21.665556  20.586379   1.012176   0.000000
     6  H   21.769975  21.773752  20.758975   1.012177   1.624552
     7  H   21.769975  21.773752  20.758975   1.012177   1.624552
     8  H    1.012024   0.984716   1.625469  21.629867  21.935337
     9  H    1.012024   0.984716   1.625469  21.629867  21.935337
                    6          7          8          9
     6  H    0.000000
     7  H    1.624541   0.000000
     8  H   22.044547  22.104338   0.000000
     9  H   22.104338  22.044547   1.624882   0.000000
 Stoichiometry    H6N2
 Framework group  CS[SG(H2N2),X(H4)]
 Deg. of freedom    11
 Full point group                 CS      NOp   2
 Largest Abelian subgroup         CS      NOp   2
 Largest concise Abelian subgroup CS      NOp   2
                         Standard orientation:                         
 ---------------------------------------------------------------------
 Center     Atomic      Atomic             Coordinates (Angstroms)
 Number     Number       Type             X           Y           Z
 ---------------------------------------------------------------------
      1          7           0       -0.045598   10.735228    0.000000
      2          1           0       -0.045598    9.723294    0.000000
      3          7           0       -0.045598  -10.579472   -0.000000
      4          1           0       -1.023714  -10.839835   -0.000000
      5          1           0        0.372173  -11.015576    0.812271
      6          1           0        0.372173  -11.015576   -0.812271
      7          1           0        0.481666   11.028699    0.812441
      8          1           0        0.481666   11.028699   -0.812441
 ---------------------------------------------------------------------
 Rotational constants (GHZ):         113.1186851           0.1300393           0.1300107

 **********************************************************************

            Population analysis using the SCF density.

 **********************************************************************

 Orbital symmetries:
       Occupied  (A') (A') (A') (A') (A') (A") (A') (A") (A') (A')
       Virtual   (A') (A') (A") (A') (A") (A') (A') (A') (A') (A')
                 (A') (A") (A") (A') (A") (A') (A") (A') (A") (A')
                 (A') (A") (A') (A') (A") (A") (A') (A') (A') (A")
                 (A") (A') (A') (A') (A") (A') (A") (A') (A') (A")
                 (A") (A') (A') (A') (A") (A') (A') (A") (A') (A')
                 (A") (A') (A") (A') (A') (A') (A') (A') (A") (A")
                 (A') (A") (A') (A") (A") (A') (A") (A') (A') (A')
                 (A") (A') (A") (A') (A") (A") (A") (A') (A') (A")
                 (A") (A') (A') (A") (A') (A') (A') (A") (A') (A")
                 (A') (A') (A') (A") (A') (A") (A') (A') (A') (A")
                 (A') (A") (A") (A") (A') (A') (A") (A') (A') (A")
                 (A') (A') (A") (A') (A") (A') (A") (A') (A") (A')
                 (A') (A') (A") (A") (A') (A") (A') (A") (A") (A')
                 (A") (A') (A') (A') (A') (A') (A") (A') (A') (A")
                 (A') (A") (A') (A") (A') (A') (A') (A") (A') (A")
                 (A") (A") (A") (A") (A') (A") (A') (A") (A') (A')
                 (A') (A") (A') (A") (A') (A') (A") (A') (A") (A')
                 (A') (A') (A") (A') (A") (A') (A') (A') (A") (A")
                 (A") (A") (A') (A") (A') (A') (A") (A') (A') (A')
                 (A") (A') (A") (A') (A') (A') (A") (A') (A") (A')
                 (A') (A') (A") (A') (A") (A') (A") (A") (A') (A')
                 (A") (A') (A") (A') (A') (A") (A') (A") (A') (A')
 The electronic state is 1-A'.
 Alpha  occ. eigenvalues --  -15.54192 -15.54121  -1.14262  -1.14198  -0.62892
 Alpha  occ. eigenvalues --   -0.62891  -0.62866  -0.62846  -0.42958  -0.42872
 Alpha virt. eigenvalues --    0.02940   0.02998   0.04853   0.04855   0.04907
 Alpha virt. eigenvalues --    0.04916   0.11770   0.11829   0.15229   0.15286
 Alpha virt. eigenvalues --    0.16218   0.16218   0.16273   0.16275   0.22132
 Alpha virt. eigenvalues --    0.22133   0.22187   0.22194   0.23520   0.23521
 Alpha virt. eigenvalues --    0.23582   0.23585   0.25443   0.25503   0.35583
 Alpha virt. eigenvalues --    0.35638   0.35784   0.35847   0.37051   0.37052
 Alpha virt. eigenvalues --    0.37109   0.37109   0.42805   0.42863   0.46071
 Alpha virt. eigenvalues --    0.46073   0.46126   0.46132   0.48671   0.48672
 Alpha virt. eigenvalues --    0.48730   0.48734   0.56348   0.56387   0.60198
 Alpha virt. eigenvalues --    0.60198   0.60264   0.60271   0.74909   0.74962
 Alpha virt. eigenvalues --    0.78602   0.78602   0.78670   0.78679   0.81090
 Alpha virt. eigenvalues --    0.81147   0.88303   0.88397   0.90227   0.90271
 Alpha virt. eigenvalues --    0.91442   0.91442   0.91489   0.91495   0.98050
 Alpha virt. eigenvalues --    0.98051   0.98149   0.98152   1.03477   1.03531
 Alpha virt. eigenvalues --    1.03545   1.03546   1.03588   1.03597   1.08114
 Alpha virt. eigenvalues --    1.08167   1.10367   1.10367   1.10433   1.10433
 Alpha virt. eigenvalues --    1.14198   1.14198   1.14244   1.14246   1.18541
 Alpha virt. eigenvalues --    1.18594   1.21912   1.21913   1.21956   1.21967
 Alpha virt. eigenvalues --    1.32183   1.32204   1.36277   1.36277   1.36379
 Alpha virt. eigenvalues --    1.36400   1.61641   1.61703   1.75887   1.75887
 Alpha virt. eigenvalues --    1.75907   1.75919   1.76242   1.76245   1.86426
 Alpha virt. eigenvalues --    1.86434   1.86434   1.86484   1.86512   1.86518
 Alpha virt. eigenvalues --    2.00309   2.00389   2.04084   2.04085   2.04143
 Alpha virt. eigenvalues --    2.04171   2.04897   2.04897   2.04968   2.04981
 Alpha virt. eigenvalues --    2.27093   2.27153   2.34377   2.34555   2.37330
 Alpha virt. eigenvalues --    2.37330   2.37394   2.37396   2.43654   2.43654
 Alpha virt. eigenvalues --    2.43689   2.43700   2.47358   2.47476   3.38814
 Alpha virt. eigenvalues --    3.39057   3.56090   3.56090   3.56231   3.56237
 Alpha virt. eigenvalues --    3.96954   3.96954   3.96975   3.96998   4.04299
 Alpha virt. eigenvalues --    4.04299   4.14036   4.14036   4.14174   4.14189
 Alpha virt. eigenvalues --    4.21388   4.21499   4.21943   4.21998   4.25996
 Alpha virt. eigenvalues --    4.25996   4.26025   4.26042   4.32275   4.32478
 Alpha virt. eigenvalues --    4.35940   4.35940   4.36049   4.36060   4.47186
 Alpha virt. eigenvalues --    4.47207   4.54925   4.54925   4.55015   4.55016
 Alpha virt. eigenvalues --    4.69068   4.69128   4.74550   4.74550   4.74733
 Alpha virt. eigenvalues --    4.74756   4.93947   4.93963   4.93963   4.93968
 Alpha virt. eigenvalues --    4.98221   4.98258   5.06193   5.06287   5.06287
 Alpha virt. eigenvalues --    5.06398   5.06449   5.06455   5.25136   5.25218
 Alpha virt. eigenvalues --    5.66980   5.67030   5.67151   5.67152   5.73088
 Alpha virt. eigenvalues --    5.73375   5.89851   5.89852   5.89953   5.90004
 Alpha virt. eigenvalues --    6.05949   6.06271   6.32238   6.32347   6.32469
 Alpha virt. eigenvalues --    6.32471   6.42571   6.43046   6.62997   6.63306
 Alpha virt. eigenvalues --    6.93808   6.93809   6.93862   6.93898   7.68681
 Alpha virt. eigenvalues --    7.68682   7.68725   7.68771  17.24298  17.25130
          Condensed to atoms (all electrons):
               1          2          3          4          5          6
     1  N    6.586638   0.336635   0.000000   0.000000   0.000000   0.000000
     2  H    0.336635   0.461208  -0.000000  -0.000000  -0.000000  -0.000000
     3  N    0.000000  -0.000000   6.587781   0.336224   0.336248   0.336248
     4  H    0.000000  -0.000000   0.336224   0.461364   0.001779   0.001779
     5  H    0.000000  -0.000000   0.336248   0.001779   0.461374   0.001776
     6  H    0.000000  -0.000000   0.336248   0.001779   0.001776   0.461374
     7  H    0.336668   0.001611   0.000000   0.000000   0.000000   0.000000
     8  H    0.336668   0.001611   0.000000   0.000000   0.000000   0.000000
               7          8
     1  N    0.336668   0.336668
     2  H    0.001611   0.001611
     3  N    0.000000   0.000000
     4  H    0.000000   0.000000
     5  H    0.000000   0.000000
     6  H    0.000000   0.000000
     7  H    0.461264   0.001620
     8  H    0.001620   0.461264
 Mulliken charges:
               1
     1  N   -0.596608
     2  H    0.198935
     3  N   -0.596500
     4  H    0.198853
     5  H    0.198823
     6  H    0.198823
     7  H    0.198837
     8  H    0.198837
 Sum of Mulliken charges =  -0.00000
 Mulliken charges with hydrogens summed into heavy atoms:
               1
     1  N   -0.000000
     3  N   -0.000000
 Electronic spatial extent (au):  <R**2>=           8203.4343
 Charge=             -0.0000 electrons
 Dipole moment (field-independent basis, Debye):
    X=              1.2901    Y=             -2.2038    Z=             -0.0000  Tot=              2.5536
 Quadrupole moment (field-independent basis, Debye-Ang):
   XX=            -14.9031   YY=              5.4995   ZZ=            -12.4438
   XY=             18.8517   XZ=             -0.0000   YZ=             -0.0000
 Traceless Quadrupole moment (field-independent basis, Debye-Ang):
   XX=             -7.6206   YY=             12.7820   ZZ=             -5.1614
   XY=             18.8517   XZ=             -0.0000   YZ=             -0.0000
 Octapole moment (field-independent basis, Debye-Ang**2):
  XXX=             -0.3389  YYY=           -676.6903  ZZZ=             -0.0000  XYY=            175.8872
  XXY=            -26.4076  XXZ=             -0.0000  XZZ=              2.0540  YZZ=             -0.4297
  YYZ=             -0.0000  XYZ=             -0.0000
 Hexadecapole moment (field-independent basis, Debye-Ang**3):
 XXXX=            -21.6289 YYYY=          -6030.3611 ZZZZ=            -19.9688 XXXY=              0.2987
 XXXZ=             -0.0000 YYYX=           2304.8034 YYYZ=             -0.0000 ZZZX=             -0.0000
 ZZZY=             -0.0000 XXYY=          -1694.5332 XXZZ=             -6.9610 YYZZ=          -1396.2624
 XXYZ=             -0.0000 YYXZ=             -0.0000 ZZXY=             -4.1065
 N-N= 2.638816490119D+01 E-N=-3.164337009313D+02  KE= 1.122580244052D+02
 Symmetry A'   KE= 1.070294220601D+02
 Symmetry A"   KE= 5.228602345053D+00
 Breneman (CHELPG) radii used.
 Generate Potential Derived Charges using the Breneman model, NDens= 1.
 Grid spacing= 0.300 Box extension= 2.800
 NStep X,Y,Z=   25     94     26   Total possible points=       61100
 Number of Points to Fit=    9324

 **********************************************************************

            Electrostatic Properties Using The SCF Density

 **********************************************************************

       Atomic Center    1 is at  -0.045598 10.735228  0.000000
       Atomic Center    2 is at  -0.045598  9.723294  0.000000
       Atomic Center    3 is at  -0.045598-10.579472 -0.000000
       Atomic Center    4 is at  -1.023714-10.839835 -0.000000
       Atomic Center    5 is at   0.372173-11.015576  0.812271
       Atomic Center    6 is at   0.372173-11.015576 -0.812271
       Atomic Center    7 is at   0.481666 11.028699  0.812441
       Atomic Center    8 is at   0.481666 11.028699 -0.812441
    9324 points will be used for fitting atomic charges
 Fitting point charges to electrostatic potential
 Charges from ESP fit, RMS=   0.00388 RRMS=   0.23149:
 ESP charges:
               1
     1  N   -0.914747
     2  H    0.304607
     3  N   -0.913814
     4  H    0.304253
     5  H    0.304693
     6  H    0.304693
     7  H    0.305158
     8  H    0.305158
 Sum of ESP charges =   0.00000
 ESP charges with hydrogens summed into heavy atoms:
               1
     1  N    0.000176
     3  N   -0.000176
 Charge=   0.00000 Dipole=     1.3391    -2.2592    -0.0000 Tot=     2.6263
 -----------------------------------------------------------------

              Electrostatic Properties (Atomic Units)

 -----------------------------------------------------------------
    Center     Electric         -------- Electric Field --------
               Potential          X             Y             Z
 -----------------------------------------------------------------
    1 Atom    -18.375825
    2 Atom     -1.067002
    3 Atom    -18.375181
    4 Atom     -1.066433
    5 Atom     -1.066431
    6 Atom     -1.066431
    7 Atom     -1.067015
    8 Atom     -1.067015
 -----------------------------------------------------------------
 1\1\GINC-N2228\POpt\RMP2-FC\Aug-CC-pVTZ\H6N2\GDS001\09-Mar-2024\1\\# m
 p2/aug-cc-pVTZ Pop=ChelpG opt=(z-matrix,MaxCycles=10000,MaxStep=1)\\Ti
 tle: Rab = 21.3147 Optimizations\\0,1\N\X,1,1.\H,1,Rah,2,90.\N,1,Rab,2
 ,90.,3,0.,0\H,4,R1,1,A1,2,180.,0\H,4,R2,5,A2,1,D1,0\H,4,R2,5,A2,1,-D1,
 0\H,1,R3,3,A3,5,D2,0\H,1,R3,3,A3,5,-D2,0\\R1=1.01217589\R2=1.01217746\
 R3=1.01202408\A1=104.905836\A2=106.73981413\A3=106.85702699\D1=123.069
 32109\D2=122.9830291\Rah=1.01193378\Rab=21.3147\\Version=ES64L-G16RevA
 .03\State=1-A'\HF=-112.4406621\MP2=-112.9210873\RMSD=3.456e-09\RMSF=7.
 324e-05\Dipole=0.8171724,0.,0.4783681\PG=CS [SG(H2N2),X(H4)]\\@


 A FOOL CAN ASK MORE QUESTIONS THAN
 A WISE MAN CAN ANSWER.
 Job cpu time:       0 days  0 hours 13 minutes 46.2 seconds.
 Elapsed time:       0 days  0 hours  0 minutes 43.8 seconds.
 File lengths (MBytes):  RWF=     80 Int=      0 D2E=      0 Chk=     12 Scr=      8
 Normal termination of Gaussian 16 at Sat Mar  9 11:37:40 2024.
