 Entering Gaussian System, Link 0=g16
 Input=hf_h2o_linear_mp2_avtz_opt_freq.gjf
 Output=hf_h2o_linear_mp2_avtz_opt_freq.log
 Initial command:
 /sw/contrib/gaussian/g16/A03/g16/l1.exe "/gscratch/scrubbed/gds001/Gau-10589.inp" -scrdir="/gscratch/scrubbed/gds001/"
 Entering Link 1 = /sw/contrib/gaussian/g16/A03/g16/l1.exe PID=     10591.
  
 Copyright (c) 1988,1990,1992,1993,1995,1998,2003,2009,2016,
            Gaussian, Inc.  All Rights Reserved.
  
 This is part of the Gaussian(R) 16 program.  It is based on
 the Gaussian(R) 09 system (copyright 2009, Gaussian, Inc.),
 the Gaussian(R) 03 system (copyright 2003, Gaussian, Inc.),
 the Gaussian(R) 98 system (copyright 1998, Gaussian, Inc.),
 the Gaussian(R) 94 system (copyright 1995, Gaussian, Inc.),
 the Gaussian 92(TM) system (copyright 1992, Gaussian, Inc.),
 the Gaussian 90(TM) system (copyright 1990, Gaussian, Inc.),
 the Gaussian 88(TM) system (copyright 1988, Gaussian, Inc.),
 the Gaussian 86(TM) system (copyright 1986, Carnegie Mellon
 University), and the Gaussian 82(TM) system (copyright 1983,
 Carnegie Mellon University). Gaussian is a federally registered
 trademark of Gaussian, Inc.
  
 This software contains proprietary and confidential information,
 including trade secrets, belonging to Gaussian, Inc.
  
 This software is provided under written license and may be
 used, copied, transmitted, or stored only in accord with that
 written license.
  
 The following legend is applicable only to US Government
 contracts under FAR:
  
                    RESTRICTED RIGHTS LEGEND
  
 Use, reproduction and disclosure by the US Government is
 subject to restrictions as set forth in subparagraphs (a)
 and (c) of the Commercial Computer Software - Restricted
 Rights clause in FAR 52.227-19.
  
 Gaussian, Inc.
 340 Quinnipiac St., Bldg. 40, Wallingford CT 06492
  
  
 ---------------------------------------------------------------
 Warning -- This program may not be used in any manner that
 competes with the business of Gaussian, Inc. or will provide
 assistance to any competitor of Gaussian, Inc.  The licensee
 of this program is prohibited from giving any competitor of
 Gaussian, Inc. access to this program.  By using this program,
 the user acknowledges that Gaussian, Inc. is engaged in the
 business of creating and licensing software in the field of
 computational chemistry and represents and warrants to the
 licensee that it is not a competitor of Gaussian, Inc. and that
 it will not use this program in any manner prohibited above.
 ---------------------------------------------------------------
  

 Cite this work as:
 Gaussian 16, Revision A.03,
 M. J. Frisch, G. W. Trucks, H. B. Schlegel, G. E. Scuseria, 
 M. A. Robb, J. R. Cheeseman, G. Scalmani, V. Barone, 
 G. A. Petersson, H. Nakatsuji, X. Li, M. Caricato, A. V. Marenich, 
 J. Bloino, B. G. Janesko, R. Gomperts, B. Mennucci, H. P. Hratchian, 
 J. V. Ortiz, A. F. Izmaylov, J. L. Sonnenberg, D. Williams-Young, 
 F. Ding, F. Lipparini, F. Egidi, J. Goings, B. Peng, A. Petrone, 
 T. Henderson, D. Ranasinghe, V. G. Zakrzewski, J. Gao, N. Rega, 
 G. Zheng, W. Liang, M. Hada, M. Ehara, K. Toyota, R. Fukuda, 
 J. Hasegawa, M. Ishida, T. Nakajima, Y. Honda, O. Kitao, H. Nakai, 
 T. Vreven, K. Throssell, J. A. Montgomery, Jr., J. E. Peralta, 
 F. Ogliaro, M. J. Bearpark, J. J. Heyd, E. N. Brothers, K. N. Kudin, 
 V. N. Staroverov, T. A. Keith, R. Kobayashi, J. Normand, 
 K. Raghavachari, A. P. Rendell, J. C. Burant, S. S. Iyengar, 
 J. Tomasi, M. Cossi, J. M. Millam, M. Klene, C. Adamo, R. Cammi, 
 J. W. Ochterski, R. L. Martin, K. Morokuma, O. Farkas, 
 J. B. Foresman, and D. J. Fox, Gaussian, Inc., Wallingford CT, 2016.
 
 ******************************************
 Gaussian 16:  ES64L-G16RevA.03 25-Dec-2016
                31-Mar-2023 
 ******************************************
 %nprocshared=28
 Will use up to   28 processors via shared memory.
 %mem=41GB
 ------------------------------------------------------------
 # mp2/aug-cc-pVTZ opt=(z-matrix,Tight,MaxCycles=100000) freq
 ------------------------------------------------------------
 1/6=100000,7=10,10=7,18=40,38=1/1,3;
 2/12=2,17=6,18=5,29=3,40=1/2;
 3/5=16,6=1,7=10,11=9,25=1,30=1,71=1/1,2,3;
 4//1;
 5/5=2,38=5/2;
 8/6=4,10=1/1;
 9/15=2,16=-3/6;
 10/5=1/2;
 6/7=2,8=2,9=2,10=2/1;
 7/12=2,29=1/1,2,3,16;
 1/6=100000,7=10,10=7,18=40/3(2);
 2/29=3/2;
 99//99;
 2/29=3/2;
 3/5=16,6=1,7=10,11=9,25=1,30=1,71=1/1,2,3;
 4/5=5,16=3,69=1/1;
 5/5=2,38=5/2;
 8/6=4,10=1/1;
 9/15=2,16=-3/6;
 10/5=1/2;
 7/12=2/1,2,3,16;
 1/6=100000,7=10,18=40/3(-8);
 2/29=3/2;
 6/7=2,8=2,9=2,10=2/1;
 99//99;
 ------------------
 Optmization Linear
 ------------------
 Symbolic Z-matrix:
 Charge =  0 Multiplicity = 1
 F1
 X2                   1     1. 
 H3                   1    Rah      2     90. 
 O4                   1    Rab      2     90.      3     0.       0
 H5                   4    R1       1    A1       2    D1       0
 H6                   4    R1       1    A1       2    -D1      0
       Variables:
  R1                    0.9625                   
  A1                  114.2884                   
  D1                  119.4179                   
  Rah                   0.9397                   
  Rab                   2.6428                   
 

 GradGradGradGradGradGradGradGradGradGradGradGradGradGradGradGradGradGrad
 Berny optimization.
 Initialization pass.
                       ----------------------------
                       !    Initial Parameters    !
                       ! (Angstroms and Degrees)  !
 ----------------------                            ----------------------
 !      Name          Value   Derivative information (Atomic Units)     !
 ------------------------------------------------------------------------
 !       R1          0.9625   estimate D2E/DX2                          !
 !       A1        114.2884   estimate D2E/DX2                          !
 !       D1        119.4179   estimate D2E/DX2                          !
 !       Rah         0.9397   estimate D2E/DX2                          !
 !       Rab         2.6428   estimate D2E/DX2                          !
 ------------------------------------------------------------------------
 Trust Radius=3.00D-01 FncErr=1.00D-07 GrdErr=1.00D-07 EigMax=2.50D+02 EigMin=1.00D-04
 Number of steps in this run=    100 maximum allowed number of steps=    100.
 GradGradGradGradGradGradGradGradGradGradGradGradGradGradGradGradGradGrad

 ---------------------------------------------------------------------------------------------------
                            Z-MATRIX (ANGSTROMS AND DEGREES)
   CD    Cent   Atom    N1       Length/X        N2       Alpha/Y        N3        Beta/Z          J
 ---------------------------------------------------------------------------------------------------
      1      1  F 
      2         X        1   1.000000(     1)
      3      2  H        1   0.939700(     2)      2   90.000(     6)
      4      3  O        1   2.642800(     3)      2   90.000(     7)      3    0.000(    10)      0
      5      4  H        4   0.962500(     4)      1  114.288(     8)      2  119.418(    11)      0
      6      5  H        4   0.962500(     5)      1  114.288(     9)      2 -119.418(    12)      0
 ---------------------------------------------------------------------------------------------------
                         Z-Matrix orientation:                         
 ---------------------------------------------------------------------
 Center     Atomic      Atomic             Coordinates (Angstroms)
 Number     Number       Type             X           Y           Z
 ---------------------------------------------------------------------
      1          9           0        0.000000    0.000000    0.000000
      2         -1           0        0.000000    0.000000    1.000000
      3          1           0        0.939700    0.000000    0.000000
      4          8           0        2.642800    0.000000    0.000000
      5          1           0        3.038705   -0.764186   -0.430911
      6          1           0        3.038705    0.764186   -0.430911
 ---------------------------------------------------------------------
                    Distance matrix (angstroms):
                    1          2          3          4          5
     1  F    0.000000
     2  X    1.000000   0.000000
     3  H    0.939700   1.372238   0.000000
     4  O    2.642800   2.825667   1.703100   0.000000
     5  H    3.162814   3.444592   2.274970   0.962500   0.000000
     6  H    3.162814   3.444592   2.274970   0.962500   1.528373
                    6
     6  H    0.000000
 Stoichiometry    FH3O
 Framework group  CS[SG(FHO),X(H2)]
 Deg. of freedom     6
 Full point group                 CS      NOp   2
 Largest Abelian subgroup         CS      NOp   2
 Largest concise Abelian subgroup CS      NOp   2
                         Standard orientation:                         
 ---------------------------------------------------------------------
 Center     Atomic      Atomic             Coordinates (Angstroms)
 Number     Number       Type             X           Y           Z
 ---------------------------------------------------------------------
      1          9           0        0.043091    1.407975   -0.000000
      2          1           0        0.043091    0.468275   -0.000000
      3          8           0        0.043091   -1.234825    0.000000
      4          1           0       -0.387820   -1.630729    0.764186
      5          1           0       -0.387820   -1.630729   -0.764186
 ---------------------------------------------------------------------
 Rotational constants (GHZ):         337.5187071           7.4841555           7.3903767
 Standard basis: Aug-CC-pVTZ (5D, 7F)
 There are   117 symmetry adapted cartesian basis functions of A'  symmetry.
 There are    68 symmetry adapted cartesian basis functions of A"  symmetry.
 There are    99 symmetry adapted basis functions of A'  symmetry.
 There are    62 symmetry adapted basis functions of A"  symmetry.
   161 basis functions,   225 primitive gaussians,   185 cartesian basis functions
    10 alpha electrons       10 beta electrons
       nuclear repulsion energy        34.5905192136 Hartrees.
 NAtoms=    5 NActive=    5 NUniq=    4 SFac= 1.56D+00 NAtFMM=   60 NAOKFM=F Big=F
 Integral buffers will be    131072 words long.
 Raffenetti 1 integral format.
 Two-electron integral symmetry is turned on.
 One-electron integrals computed using PRISM.
 NBasis=   161 RedAO= T EigKep=  1.50D-04  NBF=    99    62
 NBsUse=   161 1.00D-06 EigRej= -1.00D+00 NBFU=    99    62
 ExpMin= 2.53D-02 ExpMax= 1.95D+04 ExpMxC= 6.65D+02 IAcc=3 IRadAn=         5 AccDes= 0.00D+00
 Harris functional with IExCor=  205 and IRadAn=       5 diagonalized for initial guess.
 HarFok:  IExCor=  205 AccDes= 0.00D+00 IRadAn=         5 IDoV= 1 UseB2=F ITyADJ=14
 ICtDFT=  3500011 ScaDFX=  1.000000  1.000000  1.000000  1.000000
 FoFCou: FMM=F IPFlag=           0 FMFlag=      100000 FMFlg1=           0
         NFxFlg=           0 DoJE=T BraDBF=F KetDBF=T FulRan=T
         wScrn=  0.000000 ICntrl=       500 IOpCl=  0 I1Cent=   200000004 NGrid=           0
         NMat0=    1 NMatS0=      1 NMatT0=    0 NMatD0=    1 NMtDS0=    0 NMtDT0=    0
 Petite list used in FoFCou.
 Initial guess orbital symmetries:
       Occupied  (A') (A') (A') (A') (A") (A') (A') (A') (A") (A')
       Virtual   (A') (A") (A') (A') (A') (A") (A') (A") (A') (A')
                 (A") (A') (A') (A") (A') (A') (A') (A") (A") (A')
                 (A") (A') (A') (A") (A') (A') (A") (A') (A") (A')
                 (A') (A') (A') (A') (A") (A") (A') (A") (A') (A")
                 (A") (A') (A') (A') (A") (A') (A") (A') (A") (A')
                 (A") (A') (A") (A') (A') (A") (A') (A') (A") (A')
                 (A') (A") (A") (A') (A') (A") (A') (A') (A") (A')
                 (A') (A") (A') (A') (A") (A') (A') (A") (A') (A")
                 (A') (A") (A") (A') (A') (A") (A') (A") (A') (A')
                 (A') (A") (A') (A") (A') (A") (A') (A") (A') (A")
                 (A') (A") (A') (A') (A") (A') (A") (A') (A') (A")
                 (A') (A") (A") (A') (A") (A") (A') (A') (A') (A')
                 (A') (A") (A') (A") (A') (A') (A') (A") (A') (A")
                 (A") (A') (A') (A') (A") (A') (A') (A") (A") (A')
                 (A") (A') (A") (A') (A") (A') (A") (A') (A') (A')
                 (A')
 The electronic state of the initial guess is 1-A'.
 Keep R1 ints in memory in symmetry-blocked form, NReq=127739379.
 Requested convergence on RMS density matrix=1.00D-08 within 128 cycles.
 Requested convergence on MAX density matrix=1.00D-06.
 Requested convergence on             energy=1.00D-06.
 No special actions if energy rises.
 SCF Done:  E(RHF) =  -176.132192777     A.U. after   10 cycles
            NFock= 10  Conv=0.63D-08     -V/T= 2.0012
 ExpMin= 2.53D-02 ExpMax= 1.95D+04 ExpMxC= 6.65D+02 IAcc=3 IRadAn=         5 AccDes= 0.00D+00
 HarFok:  IExCor=  205 AccDes= 0.00D+00 IRadAn=         5 IDoV=-2 UseB2=F ITyADJ=14
 ICtDFT= 12500011 ScaDFX=  1.000000  1.000000  1.000000  1.000000
 Range of M.O.s used for correlation:     3   161
 NBasis=   161 NAE=    10 NBE=    10 NFC=     2 NFV=     0
 NROrb=    159 NOA=     8 NOB=     8 NVA=   151 NVB=   151

 **** Warning!!: The largest alpha MO coefficient is  0.21363234D+02

 Fully direct method using O(ONN) memory.
 JobTyp=1 Pass  1:  I=   3 to  10 NPSUse= 28 ParTrn=T ParDer=T DoDerP=T.
 Spin components of T(2) and E(2):
     alpha-alpha T2 =       0.1524052030D-01 E2=     -0.6914348391D-01
     alpha-beta  T2 =       0.8510295962D-01 E2=     -0.4136610348D+00
     beta-beta   T2 =       0.1524052030D-01 E2=     -0.6914348391D-01
 ANorm=    0.1056212100D+01
 E2 =    -0.5519480027D+00 EUMP2 =    -0.17668414077969D+03
          IDoAtm=11111
          Differentiating once with respect to electric field.
                with respect to dipole field.
          Differentiating once with respect to nuclear coordinates.
 Keep R1 ints in memory in symmetry-blocked form, NReq=127740449.
          There are     1 degrees of freedom in the 1st order CPHF.  IDoFFX=0 NUNeed=     1.
 LinEq1:  Iter=  0 NonCon=     1 RMS=3.63D-03 Max=3.99D-02 NDo=     1
 AX will form     1 AO Fock derivatives at one time.
 LinEq1:  Iter=  1 NonCon=     1 RMS=5.60D-04 Max=5.86D-03 NDo=     1
 LinEq1:  Iter=  2 NonCon=     1 RMS=2.39D-04 Max=3.56D-03 NDo=     1
 LinEq1:  Iter=  3 NonCon=     1 RMS=4.50D-05 Max=3.71D-04 NDo=     1
 LinEq1:  Iter=  4 NonCon=     1 RMS=7.40D-06 Max=5.99D-05 NDo=     1
 LinEq1:  Iter=  5 NonCon=     1 RMS=2.46D-06 Max=2.40D-05 NDo=     1
 LinEq1:  Iter=  6 NonCon=     1 RMS=7.48D-07 Max=6.21D-06 NDo=     1
 LinEq1:  Iter=  7 NonCon=     1 RMS=1.35D-07 Max=1.10D-06 NDo=     1
 LinEq1:  Iter=  8 NonCon=     1 RMS=1.53D-08 Max=1.12D-07 NDo=     1
 LinEq1:  Iter=  9 NonCon=     1 RMS=2.77D-09 Max=2.48D-08 NDo=     1
 LinEq1:  Iter= 10 NonCon=     1 RMS=4.99D-10 Max=4.22D-09 NDo=     1
 LinEq1:  Iter= 11 NonCon=     0 RMS=6.67D-11 Max=6.09D-10 NDo=     1
 Linear equations converged to 1.000D-10 1.000D-09 after    11 iterations.
 End of Minotr F.D. properties file   721 does not exist.
 End of Minotr F.D. properties file   722 does not exist.
 End of Minotr F.D. properties file   788 does not exist.

 **********************************************************************

            Population analysis using the SCF density.

 **********************************************************************

 Orbital symmetries:
       Occupied  (A') (A') (A') (A') (A") (A') (A') (A') (A") (A')
       Virtual   (A') (A") (A') (A') (A') (A') (A") (A") (A') (A')
                 (A") (A') (A') (A") (A') (A") (A') (A') (A') (A")
                 (A") (A') (A') (A") (A') (A') (A") (A') (A') (A")
                 (A') (A') (A") (A') (A') (A") (A") (A') (A') (A")
                 (A") (A') (A") (A') (A') (A") (A") (A') (A') (A')
                 (A") (A') (A") (A') (A') (A") (A') (A') (A") (A')
                 (A") (A') (A") (A') (A") (A') (A') (A') (A") (A')
                 (A") (A') (A') (A") (A') (A') (A") (A') (A") (A')
                 (A") (A') (A") (A') (A') (A") (A') (A") (A') (A')
                 (A') (A") (A") (A') (A") (A') (A") (A') (A") (A')
                 (A') (A") (A') (A') (A") (A') (A") (A') (A') (A")
                 (A') (A") (A") (A") (A") (A') (A') (A') (A') (A')
                 (A') (A") (A') (A") (A') (A') (A') (A") (A") (A')
                 (A") (A') (A') (A') (A") (A') (A") (A') (A") (A')
                 (A") (A') (A") (A') (A") (A') (A') (A") (A') (A')
                 (A')
 The electronic state is 1-A'.
 Alpha  occ. eigenvalues --  -26.24652 -20.61547  -1.54971  -1.40192  -0.76436
 Alpha  occ. eigenvalues --   -0.73689  -0.62920  -0.60178  -0.60177  -0.55909
 Alpha virt. eigenvalues --    0.01759   0.04100   0.06686   0.11640   0.13891
 Alpha virt. eigenvalues --    0.16710   0.16778   0.19449   0.21879   0.22754
 Alpha virt. eigenvalues --    0.22811   0.25107   0.28150   0.28160   0.30293
 Alpha virt. eigenvalues --    0.36056   0.37921   0.40624   0.43592   0.43663
 Alpha virt. eigenvalues --    0.44209   0.46839   0.57508   0.59411   0.64407
 Alpha virt. eigenvalues --    0.67678   0.69643   0.72206   0.75417   0.76945
 Alpha virt. eigenvalues --    0.80249   0.85084   0.90409   0.90572   0.93922
 Alpha virt. eigenvalues --    0.94259   0.94437   0.95999   1.00104   1.01335
 Alpha virt. eigenvalues --    1.02532   1.04828   1.11460   1.14537   1.14948
 Alpha virt. eigenvalues --    1.17894   1.19090   1.20425   1.22628   1.25507
 Alpha virt. eigenvalues --    1.27706   1.30277   1.31318   1.35565   1.50204
 Alpha virt. eigenvalues --    1.53413   1.55058   1.58465   1.65619   1.73295
 Alpha virt. eigenvalues --    1.80810   1.84143   1.91217   1.94663   2.06215
 Alpha virt. eigenvalues --    2.09627   2.21401   2.34209   2.38223   2.40571
 Alpha virt. eigenvalues --    2.46048   2.46137   2.56783   2.65787   2.68123
 Alpha virt. eigenvalues --    2.73511   2.82053   2.85528   2.86151   2.86327
 Alpha virt. eigenvalues --    2.89225   2.97257   2.97276   3.04157   3.12153
 Alpha virt. eigenvalues --    3.13760   3.15505   3.27439   3.28493   3.48039
 Alpha virt. eigenvalues --    3.78625   3.81210   3.84665   3.85867   4.06314
 Alpha virt. eigenvalues --    4.15653   4.20147   4.21205   4.22593   4.24934
 Alpha virt. eigenvalues --    4.33536   4.43964   4.45365   4.47038   4.49337
 Alpha virt. eigenvalues --    4.53486   4.65394   4.68281   4.74593   4.87835
 Alpha virt. eigenvalues --    4.93419   4.96303   5.13193   5.24372   5.28128
 Alpha virt. eigenvalues --    5.29686   5.52444   5.57976   5.71981   5.92186
 Alpha virt. eigenvalues --    6.15257   6.16045   6.29122   6.53358   6.81230
 Alpha virt. eigenvalues --    6.92706   7.19061   7.27391   7.33282   7.34192
 Alpha virt. eigenvalues --    7.37751   7.50067   7.61761   7.85254   7.89802
 Alpha virt. eigenvalues --    8.14006   8.81818   8.87455   8.87458   9.01349
 Alpha virt. eigenvalues --    9.04819   9.40375   9.41378   9.41869   9.42939
 Alpha virt. eigenvalues --    9.65590   9.70519   9.71661   9.97277  15.27362
 Alpha virt. eigenvalues --   16.53840
          Condensed to atoms (all electrons):
               1          2          3          4          5
     1  F    9.336287   0.146021  -0.067791   0.000119   0.000119
     2  H    0.146021   0.473137   0.008910   0.004971   0.004971
     3  O   -0.067791   0.008910   7.894591   0.275190   0.275190
     4  H    0.000119   0.004971   0.275190   0.483550   0.016742
     5  H    0.000119   0.004971   0.275190   0.016742   0.483550
 Mulliken charges:
               1
     1  F   -0.414755
     2  H    0.361991
     3  O   -0.386090
     4  H    0.219427
     5  H    0.219427
 Sum of Mulliken charges =   0.00000
 Mulliken charges with hydrogens summed into heavy atoms:
               1
     1  F   -0.052765
     3  O    0.052765
 Electronic spatial extent (au):  <R**2>=            157.6652
 Charge=              0.0000 electrons
 Dipole moment (field-independent basis, Debye):
    X=             -1.5035    Y=             -4.1497    Z=             -0.0000  Tot=              4.4136
 Quadrupole moment (field-independent basis, Debye-Ang):
   XX=            -12.3187   YY=            -11.8761   ZZ=             -9.7679
   XY=              2.6349   XZ=             -0.0000   YZ=              0.0000
 Traceless Quadrupole moment (field-independent basis, Debye-Ang):
   XX=             -0.9978   YY=             -0.5552   ZZ=              1.5530
   XY=              2.6349   XZ=             -0.0000   YZ=              0.0000
 Octapole moment (field-independent basis, Debye-Ang**2):
  XXX=             -0.6155  YYY=            -10.2339  ZZZ=             -0.0000  XYY=             -4.9234
  XXY=              0.3088  XXZ=              0.0000  XZZ=             -1.1752  YZZ=             -3.6736
  YYZ=              0.0000  XYZ=              0.0000
 Hexadecapole moment (field-independent basis, Debye-Ang**3):
 XXXX=            -10.6134 YYYY=           -129.5749 ZZZZ=             -9.4496 XXXY=             -1.2127
 XXXZ=             -0.0000 YYYX=              6.0758 YYYZ=              0.0000 ZZZX=             -0.0000
 ZZZY=              0.0000 XXYY=            -24.2997 XXZZ=             -3.2161 YYZZ=            -18.1277
 XXYZ=              0.0000 YYXZ=              0.0000 ZZXY=              1.2543
 N-N= 3.459051921359D+01 E-N=-4.899545699062D+02  KE= 1.759225647108D+02
 Symmetry A'   KE= 1.661251575119D+02
 Symmetry A"   KE= 9.797407198888D+00
 Calling FoFJK, ICntrl=  10002127 FMM=F ISym2X=1 I1Cent= 0 IOpClX= 0 NMat=1 NMatS=1 NMatT=0.
 ***** Axes restored to original set *****
 -------------------------------------------------------------------
 Center     Atomic                   Forces (Hartrees/Bohr)
 Number     Number              X              Y              Z
 -------------------------------------------------------------------
      1        9          -0.000005996   -0.000000000   -0.000427233
      2        1           0.000004249    0.000000000    0.000662883
      3        8           0.000022749   -0.000000000   -0.000258257
      4        1          -0.000010501    0.000022577    0.000011303
      5        1          -0.000010501   -0.000022577    0.000011303
 -------------------------------------------------------------------
 Cartesian Forces:  Max     0.000662883 RMS     0.000214586
 -----------------------------------------------------------------------------------------------
                       Internal Coordinate Forces (Hartree/Bohr or radian)
  Cent   Atom   N1       Length/X         N2         Alpha/Y        N3         Beta/Z          J
 -----------------------------------------------------------------------------------------------
      1  F 
         X        1   0.000000(     1)
      2  H        1   0.000004(     2)      2  -0.001177(     6)
      3  O        1   0.000002(     3)      2   0.001177(     7)      3  -0.000000(    10)     0
      4  H        4  -0.000027(     4)      1   0.000001(     8)      2   0.000002(    11)     0
      5  H        4  -0.000027(     5)      1   0.000001(     9)      2  -0.000002(    12)     0
 -----------------------------------------------------------------------------------------------
 Internal  Forces:  Max     0.001177132 RMS     0.000480681

 GradGradGradGradGradGradGradGradGradGradGradGradGradGradGradGradGradGrad
 Berny optimization.
 Search for a local minimum.
 Step number   1 out of a maximum of  100
 All quantities printed in internal units (Hartrees-Bohrs-Radians)
 Second derivative matrix not updated -- first step.
 The second derivative matrix:
                          R1        A1        D1        Rah       Rab
           R1           1.09878
           A1           0.00000   0.54364
           D1          -0.00000   0.27448   0.35487
           Rah         -0.00000   0.00000  -0.00000   0.60079
           Rab          0.00000  -0.00000   0.00000  -0.00000   0.02903
 ITU=  0
     Eigenvalues ---    0.02903   0.15900   0.60079   0.73951   1.09878
 RFO step:  Lambda= 0.00000000D+00 EMin= 2.90265901D-02
 Linear search not attempted -- first point.
 Variable       Old X    -DE/DX   Delta X   Delta X   Delta X     New X
                                 (Linear)    (Quad)   (Total)
    R1        1.81886  -0.00005   0.00000  -0.00005  -0.00005   1.81881
    A1        1.99471   0.00000   0.00000  -0.00000  -0.00000   1.99471
    D1        2.08424   0.00000   0.00000   0.00001   0.00001   2.08425
   Rah        1.77578   0.00000   0.00000   0.00001   0.00001   1.77578
   Rab        4.99417   0.00000   0.00000   0.00006   0.00006   4.99423
         Item               Value     Threshold  Converged?
 Maximum Force            0.000055     0.000015     NO 
 RMS     Force            0.000025     0.000010     NO 
 Maximum Displacement     0.000060     0.000060     NO 
 RMS     Displacement     0.000035     0.000040     YES
 Predicted change in Energy=-1.448713D-09
 GradGradGradGradGradGradGradGradGradGradGradGradGradGradGradGradGradGrad

 ---------------------------------------------------------------------------------------------------
                            Z-MATRIX (ANGSTROMS AND DEGREES)
   CD    Cent   Atom    N1       Length/X        N2       Alpha/Y        N3        Beta/Z          J
 ---------------------------------------------------------------------------------------------------
      1      1  F 
      2         X        1   1.000000(     1)
      3      2  H        1   0.939704(     2)      2   90.000(     6)
      4      3  O        1   2.642832(     3)      2   90.000(     7)      3    0.000(    10)      0
      5      4  H        4   0.962474(     4)      1  114.288(     8)      2  119.419(    11)      0
      6      5  H        4   0.962474(     5)      1  114.288(     9)      2 -119.419(    12)      0
 ---------------------------------------------------------------------------------------------------
                         Z-Matrix orientation:                         
 ---------------------------------------------------------------------
 Center     Atomic      Atomic             Coordinates (Angstroms)
 Number     Number       Type             X           Y           Z
 ---------------------------------------------------------------------
      1          9           0        0.000000    0.000000    0.000000
      2         -1           0        0.000000    0.000000    1.000000
      3          1           0        0.939704    0.000000    0.000000
      4          8           0        2.642832    0.000000    0.000000
      5          1           0        3.038725   -0.764160   -0.430909
      6          1           0        3.038725    0.764160   -0.430909
 ---------------------------------------------------------------------
                    Distance matrix (angstroms):
                    1          2          3          4          5
     1  F    0.000000
     2  X    1.000000   0.000000
     3  H    0.939704   1.372240   0.000000
     4  O    2.642832   2.825696   1.703128   0.000000
     5  H    3.162827   3.444604   2.274976   0.962474   0.000000
     6  H    3.162827   3.444604   2.274976   0.962474   1.528321
                    6
     6  H    0.000000
 Stoichiometry    FH3O
 Framework group  CS[SG(FHO),X(H2)]
 Deg. of freedom     6
 Full point group                 CS      NOp   2
 Largest Abelian subgroup         CS      NOp   2
 Largest concise Abelian subgroup CS      NOp   2
                         Standard orientation:                         
 ---------------------------------------------------------------------
 Center     Atomic      Atomic             Coordinates (Angstroms)
 Number     Number       Type             X           Y           Z
 ---------------------------------------------------------------------
      1          9           0        0.043091    1.407990    0.000000
      2          1           0        0.043091    0.468287    0.000000
      3          8           0        0.043091   -1.234841   -0.000000
      4          1           0       -0.387818   -1.630735    0.764160
      5          1           0       -0.387818   -1.630735   -0.764160
 ---------------------------------------------------------------------
 Rotational constants (GHZ):         337.5373078           7.4839885           7.3902221
 Standard basis: Aug-CC-pVTZ (5D, 7F)
 There are   117 symmetry adapted cartesian basis functions of A'  symmetry.
 There are    68 symmetry adapted cartesian basis functions of A"  symmetry.
 There are    99 symmetry adapted basis functions of A'  symmetry.
 There are    62 symmetry adapted basis functions of A"  symmetry.
   161 basis functions,   225 primitive gaussians,   185 cartesian basis functions
    10 alpha electrons       10 beta electrons
       nuclear repulsion energy        34.5905227152 Hartrees.
 NAtoms=    5 NActive=    5 NUniq=    4 SFac= 1.56D+00 NAtFMM=   60 NAOKFM=F Big=F
 Integral buffers will be    131072 words long.
 Raffenetti 1 integral format.
 Two-electron integral symmetry is turned on.
 One-electron integrals computed using PRISM.
 NBasis=   161 RedAO= T EigKep=  1.50D-04  NBF=    99    62
 NBsUse=   161 1.00D-06 EigRej= -1.00D+00 NBFU=    99    62
 Initial guess from the checkpoint file:  "/gscratch/scrubbed/gds001/Gau-10591.chk"
 B after Tr=    -0.000000   -0.000000   -0.000000
         Rot=    1.000000    0.000000    0.000000   -0.000000 Ang=  -0.00 deg.
 Initial guess orbital symmetries:
       Occupied  (A') (A') (A') (A') (A") (A') (A') (A') (A") (A')
       Virtual   (A') (A") (A') (A') (A') (A') (A") (A") (A') (A')
                 (A") (A') (A') (A") (A') (A") (A') (A') (A') (A")
                 (A") (A') (A') (A") (A') (A') (A") (A') (A') (A")
                 (A') (A') (A") (A') (A') (A") (A") (A') (A') (A")
                 (A") (A') (A") (A') (A') (A") (A") (A') (A') (A')
                 (A") (A') (A") (A') (A') (A") (A') (A') (A") (A')
                 (A") (A') (A") (A') (A") (A') (A') (A') (A") (A')
                 (A") (A') (A') (A") (A') (A') (A") (A') (A") (A')
                 (A") (A') (A") (A') (A') (A") (A') (A") (A') (A')
                 (A') (A") (A") (A') (A") (A') (A") (A') (A") (A')
                 (A') (A") (A') (A') (A") (A') (A") (A') (A') (A")
                 (A') (A") (A") (A") (A") (A') (A') (A') (A') (A')
                 (A') (A") (A') (A") (A') (A') (A') (A") (A") (A')
                 (A") (A') (A') (A') (A") (A') (A") (A') (A") (A')
                 (A") (A') (A") (A') (A") (A') (A') (A") (A') (A')
                 (A')
 Keep R1 ints in memory in symmetry-blocked form, NReq=127739379.
 Requested convergence on RMS density matrix=1.00D-08 within 128 cycles.
 Requested convergence on MAX density matrix=1.00D-06.
 Requested convergence on             energy=1.00D-06.
 No special actions if energy rises.
 SCF Done:  E(RHF) =  -176.132194708     A.U. after    4 cycles
            NFock=  4  Conv=0.31D-08     -V/T= 2.0012
 ExpMin= 2.53D-02 ExpMax= 1.95D+04 ExpMxC= 6.65D+02 IAcc=3 IRadAn=         5 AccDes= 0.00D+00
 HarFok:  IExCor=  205 AccDes= 0.00D+00 IRadAn=         5 IDoV=-2 UseB2=F ITyADJ=14
 ICtDFT= 12500011 ScaDFX=  1.000000  1.000000  1.000000  1.000000
 Range of M.O.s used for correlation:     3   161
 NBasis=   161 NAE=    10 NBE=    10 NFC=     2 NFV=     0
 NROrb=    159 NOA=     8 NOB=     8 NVA=   151 NVB=   151

 **** Warning!!: The largest alpha MO coefficient is  0.21362688D+02

 Fully direct method using O(ONN) memory.
 JobTyp=1 Pass  1:  I=   3 to  10 NPSUse= 28 ParTrn=T ParDer=T DoDerP=T.
 Spin components of T(2) and E(2):
     alpha-alpha T2 =       0.1524032987D-01 E2=     -0.6914323241D-01
     alpha-beta  T2 =       0.8510176681D-01 E2=     -0.4136596106D+00
     beta-beta   T2 =       0.1524032987D-01 E2=     -0.6914323241D-01
 ANorm=    0.1056211355D+01
 E2 =    -0.5519460754D+00 EUMP2 =    -0.17668414078290D+03
          IDoAtm=11111
          Differentiating once with respect to electric field.
                with respect to dipole field.
          Differentiating once with respect to nuclear coordinates.
 Keep R1 ints in memory in symmetry-blocked form, NReq=127740449.
          There are     1 degrees of freedom in the 1st order CPHF.  IDoFFX=0 NUNeed=     1.
 LinEq1:  Iter=  0 NonCon=     1 RMS=3.63D-03 Max=3.99D-02 NDo=     1
 AX will form     1 AO Fock derivatives at one time.
 LinEq1:  Iter=  1 NonCon=     1 RMS=5.60D-04 Max=5.86D-03 NDo=     1
 LinEq1:  Iter=  2 NonCon=     1 RMS=2.39D-04 Max=3.56D-03 NDo=     1
 LinEq1:  Iter=  3 NonCon=     1 RMS=4.50D-05 Max=3.71D-04 NDo=     1
 LinEq1:  Iter=  4 NonCon=     1 RMS=7.40D-06 Max=5.99D-05 NDo=     1
 LinEq1:  Iter=  5 NonCon=     1 RMS=2.46D-06 Max=2.40D-05 NDo=     1
 LinEq1:  Iter=  6 NonCon=     1 RMS=7.48D-07 Max=6.21D-06 NDo=     1
 LinEq1:  Iter=  7 NonCon=     1 RMS=1.35D-07 Max=1.10D-06 NDo=     1
 LinEq1:  Iter=  8 NonCon=     1 RMS=1.53D-08 Max=1.12D-07 NDo=     1
 LinEq1:  Iter=  9 NonCon=     1 RMS=2.77D-09 Max=2.48D-08 NDo=     1
 LinEq1:  Iter= 10 NonCon=     1 RMS=4.99D-10 Max=4.22D-09 NDo=     1
 LinEq1:  Iter= 11 NonCon=     0 RMS=6.67D-11 Max=6.09D-10 NDo=     1
 Linear equations converged to 1.000D-10 1.000D-09 after    11 iterations.
 End of Minotr F.D. properties file   721 does not exist.
 End of Minotr F.D. properties file   722 does not exist.
 End of Minotr F.D. properties file   788 does not exist.
 Calling FoFJK, ICntrl=  10002127 FMM=F ISym2X=1 I1Cent= 0 IOpClX= 0 NMat=1 NMatS=1 NMatT=0.
 ***** Axes restored to original set *****
 -------------------------------------------------------------------
 Center     Atomic                   Forces (Hartrees/Bohr)
 Number     Number              X              Y              Z
 -------------------------------------------------------------------
      1        9          -0.000000363   -0.000000000   -0.000427295
      2        1          -0.000000194    0.000000000    0.000663051
      3        8           0.000002433   -0.000000000   -0.000237840
      4        1          -0.000000938   -0.000000604    0.000001042
      5        1          -0.000000938    0.000000604    0.000001042
 -------------------------------------------------------------------
 Cartesian Forces:  Max     0.000663051 RMS     0.000212728
 -----------------------------------------------------------------------------------------------
                       Internal Coordinate Forces (Hartree/Bohr or radian)
  Cent   Atom   N1       Length/X         N2         Alpha/Y        N3         Beta/Z          J
 -----------------------------------------------------------------------------------------------
      1  F 
         X        1   0.000000(     1)
      2  H        1  -0.000000(     2)      2  -0.001177(     6)
      3  O        1   0.000001(     3)      2   0.001177(     7)      3   0.000000(    10)     0
      4  H        4  -0.000000(     4)      1  -0.000002(     8)      2  -0.000002(    11)     0
      5  H        4  -0.000000(     5)      1  -0.000002(     9)      2   0.000002(    12)     0
 -----------------------------------------------------------------------------------------------
 Internal  Forces:  Max     0.001177434 RMS     0.000480677

 GradGradGradGradGradGradGradGradGradGradGradGradGradGradGradGradGradGrad
 Berny optimization.
 Search for a local minimum.
 Step number   2 out of a maximum of  100
 All quantities printed in internal units (Hartrees-Bohrs-Radians)
 Update second derivatives using D2CorN and points    1    2
 DE= -3.21D-09 DEPred=-1.45D-09 R= 2.22D+00
 Trust test= 2.22D+00 RLast= 7.93D-05 DXMaxT set to 3.00D-01
 The second derivative matrix:
                          R1        A1        D1        Rah       Rab
           R1           1.09289
           A1          -0.01240   0.54323
           D1          -0.01504   0.27726   0.36264
           Rah         -0.00035   0.00175   0.00243   0.60101
           Rab          0.00577   0.01500   0.01855   0.00062   0.02369
 ITU=  0  0
     Eigenvalues ---    0.02264   0.16159   0.60096   0.74432   1.09396
 RFO step:  Lambda= 0.00000000D+00 EMin= 2.26411226D-02
 Quartic linear search produced a step of  0.00171.
 Variable       Old X    -DE/DX   Delta X   Delta X   Delta X     New X
                                 (Linear)    (Quad)   (Total)
    R1        1.81881  -0.00000  -0.00000  -0.00000  -0.00000   1.81881
    A1        1.99471  -0.00000  -0.00000  -0.00000  -0.00000   1.99471
    D1        2.08425  -0.00000   0.00000  -0.00001  -0.00001   2.08424
   Rah        1.77578  -0.00000   0.00000  -0.00000  -0.00000   1.77578
   Rab        4.99423   0.00000   0.00000   0.00003   0.00003   4.99425
         Item               Value     Threshold  Converged?
 Maximum Force            0.000004     0.000015     YES
 RMS     Force            0.000002     0.000010     YES
 Maximum Displacement     0.000026     0.000060     YES
 RMS     Displacement     0.000013     0.000040     YES
 Predicted change in Energy=-3.471124D-11
 Optimization completed.
    -- Stationary point found.
                       ----------------------------
                       !   Optimized Parameters   !
                       ! (Angstroms and Degrees)  !
 ----------------------                            ----------------------
 !      Name          Value   Derivative information (Atomic Units)     !
 ------------------------------------------------------------------------
 !       R1          0.9625   -DE/DX =    0.0                           !
 !       A1        114.2884   -DE/DX =    0.0                           !
 !       D1        119.4186   -DE/DX =    0.0                           !
 !       Rah         0.9397   -DE/DX =    0.0                           !
 !       Rab         2.6428   -DE/DX =    0.0                           !
 ------------------------------------------------------------------------
 GradGradGradGradGradGradGradGradGradGradGradGradGradGradGradGradGradGrad

 ---------------------------------------------------------------------------------------------------
                            Z-MATRIX (ANGSTROMS AND DEGREES)
   CD    Cent   Atom    N1       Length/X        N2       Alpha/Y        N3        Beta/Z          J
 ---------------------------------------------------------------------------------------------------
      1      1  F 
      2         X        1   1.000000(     1)
      3      2  H        1   0.939704(     2)      2   90.000(     6)
      4      3  O        1   2.642832(     3)      2   90.000(     7)      3    0.000(    10)      0
      5      4  H        4   0.962474(     4)      1  114.288(     8)      2  119.419(    11)      0
      6      5  H        4   0.962474(     5)      1  114.288(     9)      2 -119.419(    12)      0
 ---------------------------------------------------------------------------------------------------
                         Z-Matrix orientation:                         
 ---------------------------------------------------------------------
 Center     Atomic      Atomic             Coordinates (Angstroms)
 Number     Number       Type             X           Y           Z
 ---------------------------------------------------------------------
      1          9           0        0.000000    0.000000    0.000000
      2         -1           0        0.000000    0.000000    1.000000
      3          1           0        0.939704    0.000000    0.000000
      4          8           0        2.642832    0.000000    0.000000
      5          1           0        3.038725   -0.764160   -0.430909
      6          1           0        3.038725    0.764160   -0.430909
 ---------------------------------------------------------------------
                    Distance matrix (angstroms):
                    1          2          3          4          5
     1  F    0.000000
     2  X    1.000000   0.000000
     3  H    0.939704   1.372240   0.000000
     4  O    2.642832   2.825696   1.703128   0.000000
     5  H    3.162827   3.444604   2.274976   0.962474   0.000000
     6  H    3.162827   3.444604   2.274976   0.962474   1.528321
                    6
     6  H    0.000000
 Stoichiometry    FH3O
 Framework group  CS[SG(FHO),X(H2)]
 Deg. of freedom     6
 Full point group                 CS      NOp   2
 Largest Abelian subgroup         CS      NOp   2
 Largest concise Abelian subgroup CS      NOp   2
                         Standard orientation:                         
 ---------------------------------------------------------------------
 Center     Atomic      Atomic             Coordinates (Angstroms)
 Number     Number       Type             X           Y           Z
 ---------------------------------------------------------------------
      1          9           0        0.043091    1.407990    0.000000
      2          1           0        0.043091    0.468287    0.000000
      3          8           0        0.043091   -1.234841   -0.000000
      4          1           0       -0.387818   -1.630735    0.764160
      5          1           0       -0.387818   -1.630735   -0.764160
 ---------------------------------------------------------------------
 Rotational constants (GHZ):         337.5373078           7.4839885           7.3902221

 **********************************************************************

            Population analysis using the SCF density.

 **********************************************************************

 Orbital symmetries:
       Occupied  (A') (A') (A') (A') (A") (A') (A') (A') (A") (A')
       Virtual   (A') (A") (A') (A') (A') (A') (A") (A") (A') (A')
                 (A") (A') (A') (A") (A') (A") (A') (A') (A') (A")
                 (A") (A') (A') (A") (A') (A') (A") (A') (A') (A")
                 (A') (A') (A") (A') (A') (A") (A") (A') (A') (A")
                 (A") (A') (A") (A') (A') (A") (A") (A') (A') (A')
                 (A") (A') (A") (A') (A') (A") (A') (A') (A") (A')
                 (A") (A') (A") (A') (A") (A') (A') (A') (A") (A')
                 (A") (A') (A') (A") (A') (A') (A") (A') (A") (A')
                 (A") (A') (A") (A') (A') (A") (A') (A") (A') (A')
                 (A') (A") (A") (A') (A") (A') (A") (A') (A") (A')
                 (A') (A") (A') (A') (A") (A') (A") (A') (A') (A")
                 (A') (A") (A") (A") (A") (A') (A') (A') (A') (A')
                 (A') (A") (A') (A") (A') (A') (A') (A") (A") (A')
                 (A") (A') (A') (A') (A") (A') (A") (A') (A") (A')
                 (A") (A') (A") (A') (A") (A') (A') (A") (A') (A')
                 (A')
 The electronic state is 1-A'.
 Alpha  occ. eigenvalues --  -26.24652 -20.61546  -1.54971  -1.40194  -0.76438
 Alpha  occ. eigenvalues --   -0.73689  -0.62920  -0.60178  -0.60177  -0.55909
 Alpha virt. eigenvalues --    0.01759   0.04100   0.06686   0.11640   0.13891
 Alpha virt. eigenvalues --    0.16710   0.16778   0.19449   0.21879   0.22754
 Alpha virt. eigenvalues --    0.22811   0.25107   0.28150   0.28160   0.30293
 Alpha virt. eigenvalues --    0.36057   0.37921   0.40625   0.43592   0.43663
 Alpha virt. eigenvalues --    0.44210   0.46839   0.57508   0.59411   0.64407
 Alpha virt. eigenvalues --    0.67678   0.69643   0.72206   0.75418   0.76945
 Alpha virt. eigenvalues --    0.80248   0.85084   0.90409   0.90572   0.93922
 Alpha virt. eigenvalues --    0.94260   0.94437   0.95998   1.00105   1.01335
 Alpha virt. eigenvalues --    1.02533   1.04828   1.11460   1.14537   1.14948
 Alpha virt. eigenvalues --    1.17894   1.19089   1.20425   1.22628   1.25507
 Alpha virt. eigenvalues --    1.27705   1.30276   1.31317   1.35565   1.50202
 Alpha virt. eigenvalues --    1.53413   1.55057   1.58464   1.65619   1.73294
 Alpha virt. eigenvalues --    1.80813   1.84142   1.91217   1.94663   2.06217
 Alpha virt. eigenvalues --    2.09629   2.21402   2.34207   2.38223   2.40573
 Alpha virt. eigenvalues --    2.46049   2.46136   2.56781   2.65785   2.68123
 Alpha virt. eigenvalues --    2.73513   2.82053   2.85528   2.86151   2.86327
 Alpha virt. eigenvalues --    2.89225   2.97257   2.97276   3.04156   3.12153
 Alpha virt. eigenvalues --    3.13759   3.15504   3.27439   3.28492   3.48039
 Alpha virt. eigenvalues --    3.78626   3.81213   3.84665   3.85867   4.06317
 Alpha virt. eigenvalues --    4.15654   4.20148   4.21207   4.22596   4.24934
 Alpha virt. eigenvalues --    4.33535   4.43966   4.45366   4.47037   4.49337
 Alpha virt. eigenvalues --    4.53485   4.65398   4.68283   4.74598   4.87840
 Alpha virt. eigenvalues --    4.93419   4.96303   5.13201   5.24374   5.28131
 Alpha virt. eigenvalues --    5.29696   5.52450   5.57974   5.71983   5.92183
 Alpha virt. eigenvalues --    6.15255   6.16042   6.29130   6.53356   6.81230
 Alpha virt. eigenvalues --    6.92710   7.19066   7.27396   7.33281   7.34194
 Alpha virt. eigenvalues --    7.37756   7.50071   7.61761   7.85255   7.89811
 Alpha virt. eigenvalues --    8.14005   8.81832   8.87454   8.87458   9.01348
 Alpha virt. eigenvalues --    9.04819   9.40374   9.41377   9.41869   9.42939
 Alpha virt. eigenvalues --    9.65589   9.70519   9.71660   9.97276  15.27362
 Alpha virt. eigenvalues --   16.53906
          Condensed to atoms (all electrons):
               1          2          3          4          5
     1  F    9.336284   0.146020  -0.067786   0.000119   0.000119
     2  H    0.146020   0.473134   0.008908   0.004971   0.004971
     3  O   -0.067786   0.008908   7.894536   0.275194   0.275194
     4  H    0.000119   0.004971   0.275194   0.483577   0.016735
     5  H    0.000119   0.004971   0.275194   0.016735   0.483577
 Mulliken charges:
               1
     1  F   -0.414756
     2  H    0.361995
     3  O   -0.386046
     4  H    0.219403
     5  H    0.219403
 Sum of Mulliken charges =  -0.00000
 Mulliken charges with hydrogens summed into heavy atoms:
               1
     1  F   -0.052760
     3  O    0.052760
 Electronic spatial extent (au):  <R**2>=            157.6677
 Charge=             -0.0000 electrons
 Dipole moment (field-independent basis, Debye):
    X=             -1.5035    Y=             -4.1496    Z=              0.0000  Tot=              4.4136
 Quadrupole moment (field-independent basis, Debye-Ang):
   XX=            -12.3186   YY=            -11.8762   ZZ=             -9.7680
   XY=              2.6349   XZ=             -0.0000   YZ=             -0.0000
 Traceless Quadrupole moment (field-independent basis, Debye-Ang):
   XX=             -0.9977   YY=             -0.5552   ZZ=              1.5529
   XY=              2.6349   XZ=             -0.0000   YZ=             -0.0000
 Octapole moment (field-independent basis, Debye-Ang**2):
  XXX=             -0.6155  YYY=            -10.2340  ZZZ=              0.0000  XYY=             -4.9234
  XXY=              0.3087  XXZ=              0.0000  XZZ=             -1.1751  YZZ=             -3.6734
  YYZ=              0.0000  XYZ=              0.0000
 Hexadecapole moment (field-independent basis, Debye-Ang**3):
 XXXX=            -10.6132 YYYY=           -129.5772 ZZZZ=             -9.4495 XXXY=             -1.2126
 XXXZ=             -0.0000 YYYX=              6.0760 YYYZ=             -0.0000 ZZZX=              0.0000
 ZZZY=             -0.0000 XXYY=            -24.3001 XXZZ=             -3.2161 YYZZ=            -18.1284
 XXYZ=             -0.0000 YYXZ=             -0.0000 ZZXY=              1.2542
 N-N= 3.459052271522D+01 E-N=-4.899546007038D+02  KE= 1.759226553354D+02
 Symmetry A'   KE= 1.661251758105D+02
 Symmetry A"   KE= 9.797479524897D+00
 1\1\GINC-N2199\POpt\RMP2-FC\Aug-CC-pVTZ\F1H3O1\GDS001\31-Mar-2023\1\\#
  mp2/aug-cc-pVTZ opt=(z-matrix,Tight,MaxCycles=100000) freq\\Optmizati
 on Linear\\0,1\F\X,1,1.\H,1,Rah,2,90.\O,1,Rab,2,90.,3,0.,0\H,4,R1,1,A1
 ,2,D1,0\H,4,R1,1,A1,2,-D1,0\\R1=0.9624737\A1=114.28835281\D1=119.41860
 197\Rah=0.93970374\Rab=2.64283186\\Version=ES64L-G16RevA.03\State=1-A'
 \HF=-176.1321947\MP2=-176.6841408\RMSD=3.086e-09\RMSF=2.127e-04\Dipole
 =1.5696136,0.,-0.5563988\PG=CS [SG(F1H1O1),X(H2)]\\@


 ON INDUCTION, OR "WHY DO YOU BELIEVE THE SUN WILL RISE TOMORROW?":

 ... THE FARMER WHO HAS FED THE CHICKEN EVERY DAY THROUGHOUT ITS
 LIFE AT LAST WRINGS ITS NECK INSTEAD, SHOWING THAT MORE REFINED VIEWS
 AS TO THE UNIFORMITY OF NATURE WOULD HAVE BEEN USEFUL TO THE CHICKEN.

                               -- BERTRAND RUSSELL
 Job cpu time:       0 days  0 hours  9 minutes 17.5 seconds.
 Elapsed time:       0 days  0 hours  0 minutes 22.9 seconds.
 File lengths (MBytes):  RWF=     72 Int=      0 D2E=      0 Chk=      8 Scr=      8
 Normal termination of Gaussian 16 at Fri Mar 31 12:32:26 2023.
 Link1:  Proceeding to internal job step number  2.
 ----------------------------------------------------------------------
 #N Geom=AllCheck Guess=TCheck SCRF=Check GenChk RMP2(FC)/Aug-CC-pVTZ F
 req
 ----------------------------------------------------------------------
 1/6=100000,7=10,10=4,29=7,30=1,38=1,40=1/1,3;
 2/12=2,40=1/2;
 3/5=16,6=1,7=10,11=1,14=-4,25=1,30=1,70=2,71=2,116=1,140=1/1,2,3;
 4/5=101/1;
 5/5=2,38=6,98=1/2;
 8/6=3,8=1,10=1,19=11,30=-1/1;
 9/15=3,16=-3/6;
 11/6=1,8=1,15=11,17=12,24=-1,27=1,28=-2,29=300,32=6,42=3/1,2,10;
 10/6=2,21=1/2;
 8/6=4,8=1,10=1,19=11,30=-1/11,4;
 10/5=1,20=4/2;
 11/12=2,14=11,16=1,17=2,28=-2,42=3/2,10,12;
 6/7=2,8=2,9=2,10=2/1;
 7/8=1,10=1,12=2,25=1,44=2/1,2,3,16;
 1/6=100000,7=10,10=4,30=1/3;
 99//99;
 Structure from the checkpoint file:  "/gscratch/scrubbed/gds001/Gau-10591.chk"
 ------------------
 Optmization Linear
 ------------------
 Charge =  0 Multiplicity = 1
 Z-Matrix found in chk file.
 F
 X,1,1.
 H,1,Rah,2,90.
 O,1,Rab,2,90.,3,0.,0
 H,4,R1,1,A1,2,D1,0
 H,4,R1,1,A1,2,-D1,0
      Variables:
 R1=0.9624737
 A1=114.28835281
 D1=119.41860197
 Rah=0.93970374
 Rab=2.64283186
 Recover connectivity data from disk.

 GradGradGradGradGradGradGradGradGradGradGradGradGradGradGradGradGradGrad
 Berny optimization.
 Initialization pass.
                       ----------------------------
                       !    Initial Parameters    !
                       ! (Angstroms and Degrees)  !
 ----------------------                            ----------------------
 !      Name          Value   Derivative information (Atomic Units)     !
 ------------------------------------------------------------------------
 !       R1          0.9625   calculate D2E/DX2 analytically            !
 !       A1        114.2884   calculate D2E/DX2 analytically            !
 !       D1        119.4186   calculate D2E/DX2 analytically            !
 !       Rah         0.9397   calculate D2E/DX2 analytically            !
 !       Rab         2.6428   calculate D2E/DX2 analytically            !
 ------------------------------------------------------------------------
 Trust Radius=3.00D-01 FncErr=1.00D-07 GrdErr=1.00D-07 EigMax=2.50D+02 EigMin=1.00D-04
 Number of steps in this run=      2 maximum allowed number of steps=      2.
 GradGradGradGradGradGradGradGradGradGradGradGradGradGradGradGradGradGrad

                          Input orientation:                          
 ---------------------------------------------------------------------
 Center     Atomic      Atomic             Coordinates (Angstroms)
 Number     Number       Type             X           Y           Z
 ---------------------------------------------------------------------
      1          9           0        0.000000    0.000000   -0.000000
      2          1           0        0.939704    0.000000   -0.000000
      3          8           0        2.642832   -0.000000    0.000000
      4          1           0        3.038725   -0.764160   -0.430909
      5          1           0        3.038725    0.764160   -0.430909
 ---------------------------------------------------------------------
                    Distance matrix (angstroms):
                    1          2          3          4          5
     1  F    0.000000
     2  H    0.939704   0.000000
     3  O    2.642832   1.703128   0.000000
     4  H    3.162827   2.274976   0.962474   0.000000
     5  H    3.162827   2.274976   0.962474   1.528321   0.000000
 Stoichiometry    FH3O
 Framework group  CS[SG(FHO),X(H2)]
 Deg. of freedom     6
 Full point group                 CS      NOp   2
 Largest Abelian subgroup         CS      NOp   2
 Largest concise Abelian subgroup CS      NOp   2
                         Standard orientation:                         
 ---------------------------------------------------------------------
 Center     Atomic      Atomic             Coordinates (Angstroms)
 Number     Number       Type             X           Y           Z
 ---------------------------------------------------------------------
      1          9           0        0.043091    1.407990    0.000000
      2          1           0        0.043091    0.468287    0.000000
      3          8           0        0.043091   -1.234841   -0.000000
      4          1           0       -0.387818   -1.630735    0.764160
      5          1           0       -0.387818   -1.630735   -0.764160
 ---------------------------------------------------------------------
 Rotational constants (GHZ):         337.5373078           7.4839885           7.3902221
 Standard basis: Aug-CC-pVTZ (5D, 7F)
 There are   117 symmetry adapted cartesian basis functions of A'  symmetry.
 There are    68 symmetry adapted cartesian basis functions of A"  symmetry.
 There are    99 symmetry adapted basis functions of A'  symmetry.
 There are    62 symmetry adapted basis functions of A"  symmetry.
   161 basis functions,   225 primitive gaussians,   185 cartesian basis functions
    10 alpha electrons       10 beta electrons
       nuclear repulsion energy        34.5905227152 Hartrees.
 NAtoms=    5 NActive=    5 NUniq=    4 SFac= 1.56D+00 NAtFMM=   60 NAOKFM=F Big=F
 Integral buffers will be    131072 words long.
 Raffenetti 1 integral format.
 Two-electron integral symmetry is turned on.
 One-electron integrals computed using PRISM.
 NBasis=   161 RedAO= T EigKep=  1.50D-04  NBF=    99    62
 NBsUse=   161 1.00D-06 EigRej= -1.00D+00 NBFU=    99    62
 Initial guess from the checkpoint file:  "/gscratch/scrubbed/gds001/Gau-10591.chk"
 B after Tr=    -0.000000    0.000000   -0.000000
         Rot=    1.000000    0.000000   -0.000000   -0.000000 Ang=   0.00 deg.
 Initial guess orbital symmetries:
       Occupied  (A') (A') (A') (A') (A") (A') (A') (A') (A") (A')
       Virtual   (A') (A") (A') (A') (A') (A') (A") (A") (A') (A')
                 (A") (A') (A') (A") (A') (A") (A') (A') (A') (A")
                 (A") (A') (A') (A") (A') (A') (A") (A') (A') (A")
                 (A') (A') (A") (A') (A') (A") (A") (A') (A') (A")
                 (A") (A') (A") (A') (A') (A") (A") (A') (A') (A')
                 (A") (A') (A") (A') (A') (A") (A') (A') (A") (A')
                 (A") (A') (A") (A') (A") (A') (A') (A') (A") (A')
                 (A") (A') (A') (A") (A') (A') (A") (A') (A") (A')
                 (A") (A') (A") (A') (A') (A") (A') (A") (A') (A')
                 (A') (A") (A") (A') (A") (A') (A") (A') (A") (A')
                 (A') (A") (A') (A') (A") (A') (A") (A') (A') (A")
                 (A') (A") (A") (A") (A") (A') (A') (A') (A') (A')
                 (A') (A") (A') (A") (A') (A') (A') (A") (A") (A')
                 (A") (A') (A') (A') (A") (A') (A") (A') (A") (A')
                 (A") (A') (A") (A') (A") (A') (A') (A") (A') (A')
                 (A')
 Keep R1 ints in memory in symmetry-blocked form, NReq=127739379.
 Requested convergence on RMS density matrix=1.00D-08 within 128 cycles.
 Requested convergence on MAX density matrix=1.00D-06.
 Requested convergence on             energy=1.00D-06.
 No special actions if energy rises.
 SCF Done:  E(RHF) =  -176.132194708     A.U. after    1 cycles
            NFock=  1  Conv=0.10D-08     -V/T= 2.0012
 ExpMin= 2.53D-02 ExpMax= 1.95D+04 ExpMxC= 6.65D+02 IAcc=3 IRadAn=         5 AccDes= 0.00D+00
 HarFok:  IExCor=  205 AccDes= 0.00D+00 IRadAn=         5 IDoV=-2 UseB2=F ITyADJ=14
 ICtDFT= 12500011 ScaDFX=  1.000000  1.000000  1.000000  1.000000
 Range of M.O.s used for correlation:     3   161
 NBasis=   161 NAE=    10 NBE=    10 NFC=     2 NFV=     0
 NROrb=    159 NOA=     8 NOB=     8 NVA=   151 NVB=   151

 **** Warning!!: The largest alpha MO coefficient is  0.21362689D+02

 Disk-based method using ON**2 memory for  8 occupieds at a time.
 Permanent disk used for amplitudes=     2789725 words.
 Estimated scratch disk usage=    70064762 words.
 Actual    scratch disk usage=    68491898 words.
 JobTyp=1 Pass  1:  I=   3 to  10 NPSUse= 28 ParTrn=T ParDer=T DoDerP=T.
 (rs|ai) integrals will be sorted in core.
 Spin components of T(2) and E(2):
     alpha-alpha T2 =       0.1524033009D-01 E2=     -0.6914323282D-01
     alpha-beta  T2 =       0.8510176785D-01 E2=     -0.4136596126D+00
     beta-beta   T2 =       0.1524033009D-01 E2=     -0.6914323282D-01
 ANorm=    0.1056211356D+01
 E2 =    -0.5519460782D+00 EUMP2 =    -0.17668414078575D+03
 G2DrvN: will do     6 centers at a time, making    1 passes.
 Calling FoFCou, ICntrl=  3107 FMM=F I1Cent=   0 AccDes= 0.00D+00.
 End of G2Drv F.D. properties file   721 does not exist.
 End of G2Drv F.D. properties file   722 does not exist.
 End of G2Drv F.D. properties file   788 does not exist.
          IDoAtm=11111
          Differentiating once with respect to electric field.
                with respect to dipole field.
          Differentiating once with respect to nuclear coordinates.
 Keep R1 ints in memory in symmetry-blocked form, NReq=127740449.
          There are    18 degrees of freedom in the 1st order CPHF.  IDoFFX=6 NUNeed=    18.
     15 vectors produced by pass  0 Test12= 8.39D-15 5.56D-09 XBig12= 2.68D+00 4.17D-01.
 AX will form    15 AO Fock derivatives at one time.
     15 vectors produced by pass  1 Test12= 8.39D-15 5.56D-09 XBig12= 1.01D-01 6.61D-02.
     15 vectors produced by pass  2 Test12= 8.39D-15 5.56D-09 XBig12= 3.24D-03 1.60D-02.
     15 vectors produced by pass  3 Test12= 8.39D-15 5.56D-09 XBig12= 2.95D-05 1.13D-03.
     15 vectors produced by pass  4 Test12= 8.39D-15 5.56D-09 XBig12= 2.31D-07 1.16D-04.
     15 vectors produced by pass  5 Test12= 8.39D-15 5.56D-09 XBig12= 1.63D-09 7.98D-06.
     13 vectors produced by pass  6 Test12= 8.39D-15 5.56D-09 XBig12= 1.03D-11 5.64D-07.
      3 vectors produced by pass  7 Test12= 8.39D-15 5.56D-09 XBig12= 6.97D-14 4.96D-08.
 InvSVY:  IOpt=1 It=  1 EMax= 1.33D-15
 Solved reduced A of dimension   106 with    15 vectors.
 End of Minotr F.D. properties file   721 does not exist.
 End of Minotr F.D. properties file   722 does not exist.
 End of Minotr F.D. properties file   788 does not exist.
 MDV=  5502926848.
 Form MO integral derivatives with frozen-active canonical formalism.
 Discarding MO integrals.
 Reordered first order wavefunction length =      4560200
 In DefCFB: NBatch=  1 ICI= 10 ICA=151 LFMax= 76
            Large arrays: LIAPS=   179901400 LIARS=   107549750 words.
 Semi-Direct transformation.
 ModeAB=           4 MOrb=            10 LenV=    5502130419
 LASXX=     19959460 LTotXX=    19959460 LenRXX=    40285575
 LTotAB=    20326115 MaxLAS=    21865410 LenRXY=           0
 NonZer=    60245035 LenScr=    90701824 LnRSAI=    21865410
 LnScr1=    33030144 LExtra=           0 Total=    185882953
 MaxDsk=          -1 SrtSym=           T ITran=            4
 JobTyp=0 Pass  1:  I=   1 to  10.
 (rs|ai) integrals will be sorted in core.
 Spin components of T(2) and E(2):
     alpha-alpha T2 =       0.1524033009D-01 E2=     -0.6914323282D-01
     alpha-beta  T2 =       0.8510176785D-01 E2=     -0.4136596126D+00
     beta-beta   T2 =       0.1524033009D-01 E2=     -0.6914323282D-01
 ANorm=    0.1493708424D+01
 E2 =    -0.5519460782D+00 EUMP2 =    -0.17668414078575D+03
          IDoAtm=11111
          Differentiating once with respect to electric field.
                with respect to dipole field.
          Differentiating once with respect to nuclear coordinates.
          There are     1 degrees of freedom in the 1st order CPHF.  IDoFFX=0 NUNeed=     1.
 LinEq1:  Iter=  0 NonCon=     1 RMS=3.63D-03 Max=3.99D-02 NDo=     1
 LinEq1:  Iter=  1 NonCon=     1 RMS=5.60D-04 Max=5.86D-03 NDo=     1
 LinEq1:  Iter=  2 NonCon=     1 RMS=2.39D-04 Max=3.56D-03 NDo=     1
 LinEq1:  Iter=  3 NonCon=     1 RMS=4.50D-05 Max=3.71D-04 NDo=     1
 LinEq1:  Iter=  4 NonCon=     1 RMS=7.40D-06 Max=5.99D-05 NDo=     1
 LinEq1:  Iter=  5 NonCon=     1 RMS=2.46D-06 Max=2.40D-05 NDo=     1
 LinEq1:  Iter=  6 NonCon=     1 RMS=7.48D-07 Max=6.21D-06 NDo=     1
 LinEq1:  Iter=  7 NonCon=     1 RMS=1.35D-07 Max=1.10D-06 NDo=     1
 LinEq1:  Iter=  8 NonCon=     1 RMS=1.53D-08 Max=1.12D-07 NDo=     1
 LinEq1:  Iter=  9 NonCon=     1 RMS=2.77D-09 Max=2.48D-08 NDo=     1
 LinEq1:  Iter= 10 NonCon=     1 RMS=4.99D-10 Max=4.22D-09 NDo=     1
 LinEq1:  Iter= 11 NonCon=     0 RMS=6.67D-11 Max=6.09D-10 NDo=     1
 Linear equations converged to 1.000D-10 1.000D-09 after    11 iterations.
 End of Minotr F.D. properties file   721 does not exist.
 End of Minotr F.D. properties file   722 does not exist.
 End of Minotr F.D. properties file   788 does not exist.
 Symmetrizing basis deriv contribution to polar:
 IMax=3 JMax=2 DiffMx= 0.00D+00
 G2DrvN: will do     6 centers at a time, making    1 passes.
 Calling FoFCou, ICntrl=  3107 FMM=F I1Cent=   0 AccDes= 0.00D+00.
 End of G2Drv F.D. properties file   721 does not exist.
 End of G2Drv F.D. properties file   722 does not exist.
 End of G2Drv F.D. properties file   788 does not exist.
 R2 and R3 integrals will be kept in memory, NReq=   299246565.
 DD1Dir will call FoFMem   1 times, MxPair=       110
 NAB=    55 NAA=     0 NBB=     0.
 Discarding MO integrals.

 **********************************************************************

            Population analysis using the SCF density.

 **********************************************************************

 Orbital symmetries:
       Occupied  (A') (A') (A') (A') (A") (A') (A') (A') (A") (A')
       Virtual   (A') (A") (A') (A') (A') (A') (A") (A") (A') (A')
                 (A") (A') (A') (A") (A') (A") (A') (A') (A') (A")
                 (A") (A') (A') (A") (A') (A') (A") (A') (A') (A")
                 (A') (A') (A") (A') (A') (A") (A") (A') (A') (A")
                 (A") (A') (A") (A') (A') (A") (A") (A') (A') (A')
                 (A") (A') (A") (A') (A') (A") (A') (A') (A") (A')
                 (A") (A') (A") (A') (A") (A') (A') (A') (A") (A')
                 (A") (A') (A') (A") (A') (A') (A") (A') (A") (A')
                 (A") (A') (A") (A') (A') (A") (A') (A") (A') (A')
                 (A') (A") (A") (A') (A") (A') (A") (A') (A") (A')
                 (A') (A") (A') (A') (A") (A') (A") (A') (A') (A")
                 (A') (A") (A") (A") (A") (A') (A') (A') (A') (A')
                 (A') (A") (A') (A") (A') (A') (A') (A") (A") (A')
                 (A") (A') (A') (A') (A") (A') (A") (A') (A") (A')
                 (A") (A') (A") (A') (A") (A') (A') (A") (A') (A')
                 (A')
 The electronic state is 1-A'.
 Alpha  occ. eigenvalues --  -26.24652 -20.61546  -1.54971  -1.40194  -0.76438
 Alpha  occ. eigenvalues --   -0.73689  -0.62920  -0.60178  -0.60177  -0.55909
 Alpha virt. eigenvalues --    0.01759   0.04100   0.06686   0.11640   0.13891
 Alpha virt. eigenvalues --    0.16710   0.16778   0.19449   0.21879   0.22754
 Alpha virt. eigenvalues --    0.22811   0.25107   0.28150   0.28160   0.30293
 Alpha virt. eigenvalues --    0.36057   0.37921   0.40625   0.43592   0.43663
 Alpha virt. eigenvalues --    0.44210   0.46839   0.57508   0.59411   0.64407
 Alpha virt. eigenvalues --    0.67678   0.69643   0.72206   0.75418   0.76945
 Alpha virt. eigenvalues --    0.80248   0.85084   0.90409   0.90572   0.93922
 Alpha virt. eigenvalues --    0.94260   0.94437   0.95998   1.00105   1.01335
 Alpha virt. eigenvalues --    1.02533   1.04828   1.11460   1.14537   1.14948
 Alpha virt. eigenvalues --    1.17894   1.19089   1.20425   1.22628   1.25507
 Alpha virt. eigenvalues --    1.27705   1.30276   1.31317   1.35565   1.50202
 Alpha virt. eigenvalues --    1.53413   1.55057   1.58464   1.65619   1.73294
 Alpha virt. eigenvalues --    1.80813   1.84142   1.91217   1.94663   2.06217
 Alpha virt. eigenvalues --    2.09629   2.21402   2.34207   2.38223   2.40573
 Alpha virt. eigenvalues --    2.46049   2.46136   2.56781   2.65785   2.68123
 Alpha virt. eigenvalues --    2.73513   2.82053   2.85528   2.86151   2.86327
 Alpha virt. eigenvalues --    2.89225   2.97257   2.97276   3.04156   3.12153
 Alpha virt. eigenvalues --    3.13759   3.15504   3.27439   3.28492   3.48039
 Alpha virt. eigenvalues --    3.78626   3.81213   3.84665   3.85867   4.06317
 Alpha virt. eigenvalues --    4.15654   4.20148   4.21207   4.22596   4.24934
 Alpha virt. eigenvalues --    4.33535   4.43966   4.45366   4.47037   4.49337
 Alpha virt. eigenvalues --    4.53485   4.65398   4.68283   4.74598   4.87840
 Alpha virt. eigenvalues --    4.93419   4.96303   5.13201   5.24374   5.28131
 Alpha virt. eigenvalues --    5.29696   5.52450   5.57974   5.71983   5.92183
 Alpha virt. eigenvalues --    6.15255   6.16042   6.29130   6.53356   6.81230
 Alpha virt. eigenvalues --    6.92710   7.19066   7.27396   7.33281   7.34194
 Alpha virt. eigenvalues --    7.37756   7.50071   7.61761   7.85255   7.89811
 Alpha virt. eigenvalues --    8.14005   8.81832   8.87454   8.87458   9.01348
 Alpha virt. eigenvalues --    9.04819   9.40374   9.41377   9.41869   9.42939
 Alpha virt. eigenvalues --    9.65589   9.70519   9.71660   9.97276  15.27362
 Alpha virt. eigenvalues --   16.53906
          Condensed to atoms (all electrons):
               1          2          3          4          5
     1  F    9.336284   0.146020  -0.067786   0.000119   0.000119
     2  H    0.146020   0.473134   0.008908   0.004971   0.004971
     3  O   -0.067786   0.008908   7.894535   0.275194   0.275194
     4  H    0.000119   0.004971   0.275194   0.483577   0.016735
     5  H    0.000119   0.004971   0.275194   0.016735   0.483577
 Mulliken charges:
               1
     1  F   -0.414756
     2  H    0.361995
     3  O   -0.386046
     4  H    0.219403
     5  H    0.219403
 Sum of Mulliken charges =   0.00000
 Mulliken charges with hydrogens summed into heavy atoms:
               1
     1  F   -0.052760
     3  O    0.052760
 APT charges:
               1
     1  F   -0.529373
     2  H    0.533405
     3  O   -0.569360
     4  H    0.282664
     5  H    0.282664
 Sum of APT charges =   0.00000
 APT charges with hydrogens summed into heavy atoms:
               1
     1  F    0.004033
     3  O   -0.004033
 Electronic spatial extent (au):  <R**2>=            157.6677
 Charge=             -0.0000 electrons
 Dipole moment (field-independent basis, Debye):
    X=             -1.5035    Y=             -4.1496    Z=             -0.0000  Tot=              4.4136
 Quadrupole moment (field-independent basis, Debye-Ang):
   XX=            -12.3186   YY=            -11.8762   ZZ=             -9.7680
   XY=              2.6349   XZ=              0.0000   YZ=              0.0000
 Traceless Quadrupole moment (field-independent basis, Debye-Ang):
   XX=             -0.9977   YY=             -0.5552   ZZ=              1.5529
   XY=              2.6349   XZ=              0.0000   YZ=              0.0000
 Octapole moment (field-independent basis, Debye-Ang**2):
  XXX=             -0.6155  YYY=            -10.2341  ZZZ=             -0.0000  XYY=             -4.9234
  XXY=              0.3087  XXZ=             -0.0000  XZZ=             -1.1751  YZZ=             -3.6734
  YYZ=              0.0000  XYZ=              0.0000
 Hexadecapole moment (field-independent basis, Debye-Ang**3):
 XXXX=            -10.6132 YYYY=           -129.5772 ZZZZ=             -9.4495 XXXY=             -1.2126
 XXXZ=             -0.0000 YYYX=              6.0760 YYYZ=             -0.0000 ZZZX=              0.0000
 ZZZY=              0.0000 XXYY=            -24.3001 XXZZ=             -3.2161 YYZZ=            -18.1284
 XXYZ=              0.0000 YYXZ=             -0.0000 ZZXY=              1.2542
 N-N= 3.459052271522D+01 E-N=-4.899546000001D+02  KE= 1.759226548388D+02
 Symmetry A'   KE= 1.661251753272D+02
 Symmetry A"   KE= 9.797479511620D+00
  Exact polarizability:  13.292   0.454  17.671  -0.000   0.000  13.941
 Approx polarizability:   9.993   0.541  11.748   0.000  -0.000  11.080
 Calling FoFJK, ICntrl=  10100127 FMM=F ISym2X=1 I1Cent= 0 IOpClX= 0 NMat=1 NMatS=1 NMatT=0.
 Full mass-weighted force constant matrix:
 Low frequencies ---  -13.8557   -0.5829   -0.5231   -0.0006   -0.0003    0.0011
 Low frequencies ---  226.7339  248.8273  270.6096
 Diagonal vibrational polarizability:
       32.3472715      53.1308360       4.7555198
 Harmonic frequencies (cm**-1), IR intensities (KM/Mole), Raman scattering
 activities (A**4/AMU), depolarization ratios for plane and unpolarized
 incident light, reduced masses (AMU), force constants (mDyne/A),
 and normal coordinates:
                      1                      2                      3
                     A'                     A"                     A'
 Frequencies --    226.7334               248.5851               270.6094
 Red. masses --      2.1885                 1.0587                 1.8282
 Frc consts  --      0.0663                 0.0385                 0.0789
 IR Inten    --     30.0366                 0.1738               160.6016
  Atom  AN      X      Y      Z        X      Y      Z        X      Y      Z
     1   9     0.02   0.19   0.00     0.00  -0.00   0.03     0.02  -0.11  -0.00
     2   1    -0.16   0.21  -0.00    -0.00  -0.00  -0.37    -0.26  -0.11   0.00
     3   8    -0.05  -0.17  -0.00    -0.00   0.00  -0.04    -0.08   0.19   0.00
     4   1     0.32  -0.57   0.00    -0.12   0.61   0.21     0.51  -0.42   0.01
     5   1     0.32  -0.57  -0.00     0.12  -0.61   0.21     0.51  -0.42  -0.01
                      4                      5                      6
                     A'                     A"                     A'
 Frequencies --    723.4576               844.9710              1631.4670
 Red. masses --      1.0490                 1.0408                 1.0839
 Frc consts  --      0.3235                 0.4378                 1.6997
 IR Inten    --    157.5715               118.7878                73.3038
  Atom  AN      X      Y      Z        X      Y      Z        X      Y      Z
     1   9    -0.03  -0.00  -0.00     0.00   0.00  -0.02     0.00   0.00  -0.00
     2   1     0.98   0.00   0.00    -0.00  -0.00   0.93    -0.03  -0.01   0.00
     3   8    -0.04   0.01   0.00     0.00  -0.00  -0.04    -0.05  -0.05  -0.00
     4   1     0.10  -0.10   0.01    -0.04   0.24   0.07     0.40   0.40   0.43
     5   1     0.10  -0.10  -0.01     0.04  -0.24   0.07     0.40   0.40  -0.43
                      7                      8                      9
                     A'                     A'                     A"
 Frequencies --   3718.0474              3813.8989              3931.8008
 Red. masses --      1.0600                 1.0451                 1.0821
 Frc consts  --      8.6337                 8.9564                 9.8556
 IR Inten    --    963.0181                 9.1659               116.3113
  Atom  AN      X      Y      Z        X      Y      Z        X      Y      Z
     1   9     0.00  -0.05  -0.00    -0.00  -0.01   0.00     0.00  -0.00  -0.00
     2   1    -0.00   0.99   0.00     0.00   0.16   0.00     0.00   0.00  -0.00
     3   8    -0.01  -0.01  -0.00     0.04   0.03   0.00     0.00   0.00  -0.07
     4   1     0.05   0.05  -0.09    -0.28  -0.26   0.58    -0.32  -0.29   0.56
     5   1     0.05   0.05   0.09    -0.28  -0.26  -0.58     0.32   0.29   0.56

 -------------------
 - Thermochemistry -
 -------------------
 Temperature   298.150 Kelvin.  Pressure   1.00000 Atm.
 Atom     1 has atomic number  9 and mass  18.99840
 Atom     2 has atomic number  1 and mass   1.00783
 Atom     3 has atomic number  8 and mass  15.99491
 Atom     4 has atomic number  1 and mass   1.00783
 Atom     5 has atomic number  1 and mass   1.00783
 Molecular mass:    38.01679 amu.
 Principal axes and moments of inertia in atomic units:
                           1         2         3
     Eigenvalues --     5.34679 241.14698 244.20662
           X            0.02261   0.00000   0.99974
           Y            0.99974   0.00000  -0.02261
           Z            0.00000   1.00000   0.00000
 This molecule is an asymmetric top.
 Rotational symmetry number  1.
 Rotational temperatures (Kelvin)     16.19924     0.35917     0.35467
 Rotational constants (GHZ):         337.53731     7.48399     7.39022
 Zero-point vibrational energy      92169.7 (Joules/Mol)
                                   22.02909 (Kcal/Mol)
 Warning -- explicit consideration of   3 degrees of freedom as
           vibrations may cause significant error
 Vibrational temperatures:    326.22   357.66   389.35  1040.89  1215.72
          (Kelvin)           2347.32  5349.44  5487.35  5656.98
 
 Zero-point correction=                           0.035106 (Hartree/Particle)
 Thermal correction to Energy=                    0.039578
 Thermal correction to Enthalpy=                  0.040522
 Thermal correction to Gibbs Free Energy=         0.010629
 Sum of electronic and zero-point Energies=           -176.649035
 Sum of electronic and thermal Energies=              -176.644563
 Sum of electronic and thermal Enthalpies=            -176.643619
 Sum of electronic and thermal Free Energies=         -176.673512
 
                     E (Thermal)             CV                S
                      KCal/Mol        Cal/Mol-Kelvin    Cal/Mol-Kelvin
 Total                   24.835             12.666             62.914
 Electronic               0.000              0.000              0.000
 Translational            0.889              2.981             36.835
 Rotational               0.889              2.981             20.382
 Vibrational             23.058              6.704              5.697
 Vibration     1          0.650              1.800              1.905
 Vibration     2          0.662              1.765              1.741
 Vibration     3          0.674              1.727              1.592
                       Q            Log10(Q)             Ln(Q)
 Total Bot       0.129104D-04         -4.889060        -11.257477
 Total V=0       0.181290D+12         11.258374         25.923363
 Vib (Bot)       0.220603D-15        -15.656389        -36.050168
 Vib (Bot)    1  0.869911D+00         -0.060525         -0.139364
 Vib (Bot)    2  0.785654D+00         -0.104768         -0.241238
 Vib (Bot)    3  0.713949D+00         -0.146333         -0.336944
 Vib (V=0)       0.309774D+01          0.491045          1.130672
 Vib (V=0)    1  0.150337D+01          0.177065          0.407707
 Vib (V=0)    2  0.143126D+01          0.155720          0.358558
 Vib (V=0)    3  0.137162D+01          0.137234          0.315993
 Electronic      0.100000D+01          0.000000          0.000000
 Translational   0.921334D+07          6.964417         16.036163
 Rotational      0.635202D+04          3.802912          8.756528
 ***** Axes restored to original set *****
 -------------------------------------------------------------------
 Center     Atomic                   Forces (Hartrees/Bohr)
 Number     Number              X              Y              Z
 -------------------------------------------------------------------
      1        9          -0.000000371   -0.000000000   -0.000427294
      2        1          -0.000000192    0.000000000    0.000663051
      3        8           0.000002475    0.000000000   -0.000237853
      4        1          -0.000000956   -0.000000593    0.000001048
      5        1          -0.000000956    0.000000593    0.000001048
 -------------------------------------------------------------------
 Cartesian Forces:  Max     0.000663051 RMS     0.000212729
 -----------------------------------------------------------------------------------------------
                       Internal Coordinate Forces (Hartree/Bohr or radian)
  Cent   Atom   N1       Length/X         N2         Alpha/Y        N3         Beta/Z          J
 -----------------------------------------------------------------------------------------------
      1  F 
         X        1   0.000000(     1)
      2  H        1  -0.000000(     2)      2  -0.001177(     6)
      3  O        1   0.000001(     3)      2   0.001177(     7)      3  -0.000000(    10)     0
      4  H        4  -0.000000(     4)      1  -0.000002(     8)      2  -0.000002(    11)     0
      5  H        4  -0.000000(     5)      1  -0.000002(     9)      2   0.000002(    12)     0
 -----------------------------------------------------------------------------------------------
 Internal  Forces:  Max     0.001177434 RMS     0.000480682

 GradGradGradGradGradGradGradGradGradGradGradGradGradGradGradGradGradGrad
 Berny optimization.
 Search for a local minimum.
 Step number   1 out of a maximum of    2
 All quantities printed in internal units (Hartrees-Bohrs-Radians)
 Second derivative matrix not updated -- analytic derivatives used.
 The second derivative matrix:
                          R1        A1        D1        Rah       Rab
           R1           1.06261
           A1          -0.06052   0.24957
           D1          -0.08956   0.27164   0.33514
           Rah         -0.00539   0.01383   0.00564   0.50025
           Rab          0.00194  -0.00241  -0.00323   0.00949   0.02080
 ITU=  0
     Eigenvalues ---    0.01712   0.02058   0.49747   0.54805   1.08514
 Angle between quadratic step and forces=  65.24 degrees.
 Linear search not attempted -- first point.
 Variable       Old X    -DE/DX   Delta X   Delta X   Delta X     New X
                                 (Linear)    (Quad)   (Total)
    R1        1.81881  -0.00000   0.00000  -0.00000  -0.00000   1.81881
    A1        1.99471  -0.00000   0.00000   0.00000   0.00000   1.99471
    D1        2.08425  -0.00000   0.00000  -0.00001  -0.00001   2.08423
   Rah        1.77578  -0.00000   0.00000  -0.00000  -0.00000   1.77578
   Rab        4.99423   0.00000   0.00000   0.00003   0.00003   4.99425
         Item               Value     Threshold  Converged?
 Maximum Force            0.000004     0.000015     YES
 RMS     Force            0.000002     0.000010     YES
 Maximum Displacement     0.000026     0.000060     YES
 RMS     Displacement     0.000013     0.000040     YES
 Predicted change in Energy=-3.236757D-11
 Optimization completed.
    -- Stationary point found.
                       ----------------------------
                       !   Optimized Parameters   !
                       ! (Angstroms and Degrees)  !
 ----------------------                            ----------------------
 !      Name          Value   Derivative information (Atomic Units)     !
 ------------------------------------------------------------------------
 !       R1          0.9625   -DE/DX =    0.0                           !
 !       A1        114.2884   -DE/DX =    0.0                           !
 !       D1        119.4186   -DE/DX =    0.0                           !
 !       Rah         0.9397   -DE/DX =    0.0                           !
 !       Rab         2.6428   -DE/DX =    0.0                           !
 ------------------------------------------------------------------------
 GradGradGradGradGradGradGradGradGradGradGradGradGradGradGradGradGradGrad


 ----------------------------------------------------------------------

 Electric dipole moment (input orientation):
 (Debye = 10**-18 statcoulomb cm , SI units = C m)
                  (au)            (Debye)         (10**-30 SI)
   Tot        0.166531D+01      0.423280D+01      0.141191D+02
   x          0.156961D+01      0.398956D+01      0.133077D+02
   y          0.000000D+00      0.000000D+00      0.000000D+00
   z         -0.556399D+00     -0.141422D+01     -0.471735D+01

 Dipole polarizability, Alpha (input orientation).
 (esu units = cm**3 , SI units = C**2 m**2 J**-1)
 Alpha(0;0):
               (au)            (10**-24 esu)      (10**-40 SI)
   iso        0.149681D+02      0.221805D+01      0.246791D+01
   aniso      0.416848D+01      0.617705D+00      0.687289D+00
   xx         0.176712D+02      0.261861D+01      0.291359D+01
   yx         0.000000D+00      0.000000D+00      0.000000D+00
   yy         0.139414D+02      0.206591D+01      0.229863D+01
   zx        -0.454248D+00     -0.673126D-01     -0.748954D-01
   zy         0.000000D+00      0.000000D+00      0.000000D+00
   zz         0.132917D+02      0.196962D+01      0.219150D+01

 ----------------------------------------------------------------------

 Dipole orientation:
     9          0.00000000          0.00000000          0.00000000
     1          0.59330806         -0.00000000          1.67373528
     8          1.66862529         -0.00000000          4.70722922
     1          1.15107788          1.44405404          5.68443370
     1          1.15107788         -1.44405404          5.68443370

 Electric dipole moment (dipole orientation):
 (Debye = 10**-18 statcoulomb cm , SI units = C m)
                  (au)            (Debye)         (10**-30 SI)
   Tot        0.166531D+01      0.423280D+01      0.141191D+02
   x          0.000000D+00      0.000000D+00      0.000000D+00
   y          0.000000D+00      0.000000D+00      0.000000D+00
   z          0.166531D+01      0.423280D+01      0.141191D+02

 Dipole polarizability, Alpha (dipole orientation).
 (esu units = cm**3 , SI units = C**2 m**2 J**-1)
 Alpha(0;0):
               (au)            (10**-24 esu)      (10**-40 SI)
   iso        0.149681D+02      0.221805D+01      0.246791D+01
   aniso      0.416848D+01      0.617705D+00      0.687289D+00
   xx         0.134945D+02      0.199967D+01      0.222494D+01
   yx         0.000000D+00      0.000000D+00      0.000000D+00
   yy         0.139414D+02      0.206591D+01      0.229863D+01
   zx         0.102634D+01      0.152088D+00      0.169221D+00
   zy         0.000000D+00      0.000000D+00      0.000000D+00
   zz         0.174684D+02      0.258856D+01      0.288016D+01

 ----------------------------------------------------------------------
 1\1\GINC-N2199\Freq\RMP2-FC\Aug-CC-pVTZ\F1H3O1\GDS001\31-Mar-2023\1\\#
 N Geom=AllCheck Guess=TCheck SCRF=Check GenChk RMP2(FC)/Aug-CC-pVTZ Fr
 eq\\Optmization Linear\\0,1\F\X,1,1.\H,1,Rah,2,90.\O,1,Rab,2,90.,3,0.,
 0\H,4,R1,1,A1,2,D1,0\H,4,R1,1,A1,2,-D1,0\\R1=0.9624737\A1=114.28835281
 \D1=119.41860197\Rah=0.93970374\Rab=2.64283186\\Version=ES64L-G16RevA.
 03\State=1-A'\HF=-176.1321947\MP2=-176.6841408\RMSD=1.042e-09\RMSF=2.1
 27e-04\ZeroPoint=0.0351056\Thermal=0.0395776\Dipole=1.5696138,0.,-0.55
 63989\DipoleDeriv=-0.7447062,0.,0.0176102,0.,-0.4236283,0.,0.009952,0.
 ,-0.4197839,0.9721661,0.,-0.0404547,0.,0.3095445,0.,-0.0213089,0.,0.31
 85056,-0.7737995,0.,-0.0888209,0.,-0.4911603,0.,-0.1124658,0.,-0.44312
 03,0.2731698,-0.0009112,0.0558327,0.006255,0.3026221,-0.0328026,0.0619
 113,-0.0220035,0.2721993,0.2731698,0.0009112,0.0558327,-0.006255,0.302
 6221,0.0328026,0.0619113,0.0220035,0.2721993\Polar=17.6712436,0.,13.94
 14248,-0.4542481,0.,13.2916744\PG=CS [SG(F1H1O1),X(H2)]\NImag=0\\0.540
 01320,0.,0.00610722,-0.00010355,0.,0.00667985,-0.50973184,0.,-0.000067
 29,0.50024564,0.,-0.01142663,0.,0.,0.02328304,-0.00115481,0.,-0.010954
 27,0.00132012,0.,0.01859711,-0.02597372,0.,0.00232914,0.00477007,0.,-0
 .00667562,0.23912350,0.,0.00650572,0.,0.,-0.01402282,0.,0.,0.69659499,
 0.00280010,0.,0.00445780,-0.00223567,0.,-0.00743493,-0.21935987,0.,0.2
 4335433,-0.00215382,-0.00186530,-0.00107915,0.00235807,0.00562564,0.00
 325516,-0.10895993,0.17411983,0.10939772,0.10349895,-0.00285151,-0.000
 59316,0.00016814,0.00433631,0.00108320,-0.00037527,0.13541023,-0.34453
 895,-0.14830395,-0.15738760,0.37245315,-0.00077087,-0.00018653,-0.0000
 9168,0.00049142,0.00038123,-0.00010395,0.11185318,-0.19420276,-0.12018
 860,-0.10594006,0.17125957,0.11489238,-0.00215382,0.00186530,-0.001079
 15,0.00235807,-0.00562564,0.00325516,-0.10895993,-0.17411983,0.1093977
 2,0.00525673,0.02049257,-0.00563367,0.10349895,0.00285151,-0.00059316,
 -0.00016814,-0.00433631,0.00108320,0.00037527,-0.13541023,-0.34453895,
 0.14830395,-0.02049257,-0.02840424,0.02274849,0.15738760,0.37245315,-0
 .00077087,0.00018653,-0.00009168,0.00049142,-0.00038123,-0.00010395,0.
 11185318,0.19420276,-0.12018860,-0.00563367,-0.02274849,0.00549185,-0.
 10594006,-0.17125957,0.11489238\\0.00000037,0.,0.00042729,0.00000019,0
 .,-0.00066305,-0.00000247,0.,0.00023785,0.00000096,0.00000059,-0.00000
 105,0.00000096,-0.00000059,-0.00000105\\\@


 When cryptography is outlawed, bayl bhgynjf jvyy unir cevinpl.
 Job cpu time:       0 days  0 hours 40 minutes 18.9 seconds.
 Elapsed time:       0 days  0 hours  1 minutes 27.6 seconds.
 File lengths (MBytes):  RWF=   2360 Int=      0 D2E=      0 Chk=      8 Scr=      8
 Normal termination of Gaussian 16 at Fri Mar 31 12:33:54 2023.
