 Entering Gaussian System, Link 0=g16
 Input=hf_hf_linear_mp2_avtz_rab_opts.gjf
 Output=hf_hf_linear_mp2_avtz_rab_opts.log
 Initial command:
 /sw/contrib/gaussian/g16/A03/g16/l1.exe "/gscratch/scrubbed/gds001/Gau-12542.inp" -scrdir="/gscratch/scrubbed/gds001/"
 Entering Link 1 = /sw/contrib/gaussian/g16/A03/g16/l1.exe PID=     12543.
  
 Copyright (c) 1988,1990,1992,1993,1995,1998,2003,2009,2016,
            Gaussian, Inc.  All Rights Reserved.
  
 This is part of the Gaussian(R) 16 program.  It is based on
 the Gaussian(R) 09 system (copyright 2009, Gaussian, Inc.),
 the Gaussian(R) 03 system (copyright 2003, Gaussian, Inc.),
 the Gaussian(R) 98 system (copyright 1998, Gaussian, Inc.),
 the Gaussian(R) 94 system (copyright 1995, Gaussian, Inc.),
 the Gaussian 92(TM) system (copyright 1992, Gaussian, Inc.),
 the Gaussian 90(TM) system (copyright 1990, Gaussian, Inc.),
 the Gaussian 88(TM) system (copyright 1988, Gaussian, Inc.),
 the Gaussian 86(TM) system (copyright 1986, Carnegie Mellon
 University), and the Gaussian 82(TM) system (copyright 1983,
 Carnegie Mellon University). Gaussian is a federally registered
 trademark of Gaussian, Inc.
  
 This software contains proprietary and confidential information,
 including trade secrets, belonging to Gaussian, Inc.
  
 This software is provided under written license and may be
 used, copied, transmitted, or stored only in accord with that
 written license.
  
 The following legend is applicable only to US Government
 contracts under FAR:
  
                    RESTRICTED RIGHTS LEGEND
  
 Use, reproduction and disclosure by the US Government is
 subject to restrictions as set forth in subparagraphs (a)
 and (c) of the Commercial Computer Software - Restricted
 Rights clause in FAR 52.227-19.
  
 Gaussian, Inc.
 340 Quinnipiac St., Bldg. 40, Wallingford CT 06492
  
  
 ---------------------------------------------------------------
 Warning -- This program may not be used in any manner that
 competes with the business of Gaussian, Inc. or will provide
 assistance to any competitor of Gaussian, Inc.  The licensee
 of this program is prohibited from giving any competitor of
 Gaussian, Inc. access to this program.  By using this program,
 the user acknowledges that Gaussian, Inc. is engaged in the
 business of creating and licensing software in the field of
 computational chemistry and represents and warrants to the
 licensee that it is not a competitor of Gaussian, Inc. and that
 it will not use this program in any manner prohibited above.
 ---------------------------------------------------------------
  

 Cite this work as:
 Gaussian 16, Revision A.03,
 M. J. Frisch, G. W. Trucks, H. B. Schlegel, G. E. Scuseria, 
 M. A. Robb, J. R. Cheeseman, G. Scalmani, V. Barone, 
 G. A. Petersson, H. Nakatsuji, X. Li, M. Caricato, A. V. Marenich, 
 J. Bloino, B. G. Janesko, R. Gomperts, B. Mennucci, H. P. Hratchian, 
 J. V. Ortiz, A. F. Izmaylov, J. L. Sonnenberg, D. Williams-Young, 
 F. Ding, F. Lipparini, F. Egidi, J. Goings, B. Peng, A. Petrone, 
 T. Henderson, D. Ranasinghe, V. G. Zakrzewski, J. Gao, N. Rega, 
 G. Zheng, W. Liang, M. Hada, M. Ehara, K. Toyota, R. Fukuda, 
 J. Hasegawa, M. Ishida, T. Nakajima, Y. Honda, O. Kitao, H. Nakai, 
 T. Vreven, K. Throssell, J. A. Montgomery, Jr., J. E. Peralta, 
 F. Ogliaro, M. J. Bearpark, J. J. Heyd, E. N. Brothers, K. N. Kudin, 
 V. N. Staroverov, T. A. Keith, R. Kobayashi, J. Normand, 
 K. Raghavachari, A. P. Rendell, J. C. Burant, S. S. Iyengar, 
 J. Tomasi, M. Cossi, J. M. Millam, M. Klene, C. Adamo, R. Cammi, 
 J. W. Ochterski, R. L. Martin, K. Morokuma, O. Farkas, 
 J. B. Foresman, and D. J. Fox, Gaussian, Inc., Wallingford CT, 2016.
 
 ******************************************
 Gaussian 16:  ES64L-G16RevA.03 25-Dec-2016
                 9-Mar-2024 
 ******************************************
 %nprocshared=28
 Will use up to   28 processors via shared memory.
 %mem=41GB
 -----------------------------------------
 # mp2/aug-cc-pVTZ Pop=ChelpG opt=z-matrix
 -----------------------------------------
 1/10=7,18=40,38=1/1,3;
 2/12=2,17=6,18=5,29=3,40=1/2;
 3/5=16,6=1,7=10,11=9,25=1,30=1,71=1/1,2,3;
 4//1;
 5/5=2,38=5/2;
 8/6=4,10=1/1;
 9/15=2,16=-3/6;
 10/5=1/2;
 6/7=2,8=2,9=2,10=2,15=8,20=3/1,2;
 7/12=2,29=1/1,2,3,16;
 1/10=7,18=40/3(2);
 2/29=3/2;
 99//99;
 2/29=3/2;
 3/5=16,6=1,7=10,11=9,25=1,30=1,71=1/1,2,3;
 4/5=5,16=3,69=1/1;
 5/5=2,38=5/2;
 8/6=4,10=1/1;
 9/15=2,16=-3/6;
 10/5=1/2;
 7/12=2/1,2,3,16;
 1/18=40/3(-8);
 2/29=3/2;
 6/7=2,8=2,9=2,10=2,15=8,20=3/1,2;
 99//99;
 ---------------------------------
 Title: Rab = 2.2497 Optimizations
 ---------------------------------
 Symbolic Z-matrix:
 Charge =  0 Multiplicity = 1
 F1
 X2                   1     1. 
 H3                   1    Rah      2     90. 
 F4                   1    Rab      2     90.      3     0.       0
 X5                   4     1.       1     90.      2     90.      0
 H5                   4    R1       5     90.      1    D1       0
       Variables:
  R1                    0.9248                   
  D1                  118.5767                   
  Rah                   0.9278                   
       Constants:
  Rab                   2.2497                   
 

 GradGradGradGradGradGradGradGradGradGradGradGradGradGradGradGradGradGrad
 Berny optimization.
 Initialization pass.
                       ----------------------------
                       !    Initial Parameters    !
                       ! (Angstroms and Degrees)  !
 ----------------------                            ----------------------
 !      Name          Value   Derivative information (Atomic Units)     !
 ------------------------------------------------------------------------
 !       R1          0.9248   estimate D2E/DX2                          !
 !       D1        118.5767   estimate D2E/DX2                          !
 !       Rah         0.9278   estimate D2E/DX2                          !
 !       Rab         2.2497   Frozen                                    !
 ------------------------------------------------------------------------
 Trust Radius=3.00D-01 FncErr=1.00D-07 GrdErr=1.00D-07 EigMax=2.50D+02 EigMin=1.00D-04
 Number of steps in this run=     20 maximum allowed number of steps=    100.
 GradGradGradGradGradGradGradGradGradGradGradGradGradGradGradGradGradGrad

 ---------------------------------------------------------------------------------------------------
                            Z-MATRIX (ANGSTROMS AND DEGREES)
   CD    Cent   Atom    N1       Length/X        N2       Alpha/Y        N3        Beta/Z          J
 ---------------------------------------------------------------------------------------------------
      1      1  F 
      2         X        1   1.000000(     1)
      3      2  H        1   0.927800(     2)      2   90.000(     6)
      4      3  F        1   2.249700(     3)      2   90.000(     7)      3    0.000(    10)      0
      5         X        4   1.000000(     4)      1   90.000(     8)      2   90.000(    11)      0
      6      4  H        4   0.924800(     5)      5   90.000(     9)      1  118.577(    12)      0
 ---------------------------------------------------------------------------------------------------
                         Z-Matrix orientation:                         
 ---------------------------------------------------------------------
 Center     Atomic      Atomic             Coordinates (Angstroms)
 Number     Number       Type             X           Y           Z
 ---------------------------------------------------------------------
      1          9           0        0.000000    0.000000    0.000000
      2         -1           0        0.000000    0.000000    1.000000
      3          1           0        0.927800    0.000000    0.000000
      4          9           0        2.249700    0.000000    0.000000
      5         -1           0        2.249700   -1.000000    0.000000
      6          1           0        2.692064   -0.000000    0.812139
 ---------------------------------------------------------------------
                    Distance matrix (angstroms):
                    1          2          3          4          5
     1  F    0.000000
     2  X    1.000000   0.000000
     3  H    0.927800   1.364116   0.000000
     4  F    2.249700   2.461940   1.321900   0.000000
     5  X    2.461940   2.657282   1.657534   1.000000   0.000000
     6  H    2.811899   2.698611   1.942214   0.924800   1.362077
                    6
     6  H    0.000000
 Stoichiometry    F2H2
 Framework group  CS[SG(F2H2)]
 Deg. of freedom     5
 Full point group                 CS      NOp   2
 Largest Abelian subgroup         CS      NOp   2
 Largest concise Abelian subgroup C1      NOp   1
                         Standard orientation:                         
 ---------------------------------------------------------------------
 Center     Atomic      Atomic             Coordinates (Angstroms)
 Number     Number       Type             X           Y           Z
 ---------------------------------------------------------------------
      1          9           0        0.040607    1.193358    0.000000
      2          1           0        0.040607    0.265558    0.000000
      3          9           0        0.040607   -1.056342   -0.000000
      4          1           0       -0.771532   -1.498706   -0.000000
 ---------------------------------------------------------------------
 Rotational constants (GHZ):         819.8008527           9.9926127           9.8722788
 Standard basis: Aug-CC-pVTZ (5D, 7F)
 There are   110 symmetry adapted cartesian basis functions of A'  symmetry.
 There are    50 symmetry adapted cartesian basis functions of A"  symmetry.
 There are    92 symmetry adapted basis functions of A'  symmetry.
 There are    46 symmetry adapted basis functions of A"  symmetry.
   138 basis functions,   198 primitive gaussians,   160 cartesian basis functions
    10 alpha electrons       10 beta electrons
       nuclear repulsion energy        34.9050276935 Hartrees.
 NAtoms=    4 NActive=    4 NUniq=    4 SFac= 1.00D+00 NAtFMM=   60 NAOKFM=F Big=F
 Integral buffers will be    131072 words long.
 Raffenetti 1 integral format.
 Two-electron integral symmetry is turned on.
 One-electron integrals computed using PRISM.
 NBasis=   138 RedAO= T EigKep=  1.40D-04  NBF=    92    46
 NBsUse=   138 1.00D-06 EigRej= -1.00D+00 NBFU=    92    46
 ExpMin= 2.53D-02 ExpMax= 1.95D+04 ExpMxC= 6.65D+02 IAcc=3 IRadAn=         5 AccDes= 0.00D+00
 Harris functional with IExCor=  205 and IRadAn=       5 diagonalized for initial guess.
 HarFok:  IExCor=  205 AccDes= 0.00D+00 IRadAn=         5 IDoV= 1 UseB2=F ITyADJ=14
 ICtDFT=  3500011 ScaDFX=  1.000000  1.000000  1.000000  1.000000
 FoFCou: FMM=F IPFlag=           0 FMFlag=      100000 FMFlg1=           0
         NFxFlg=           0 DoJE=T BraDBF=F KetDBF=T FulRan=T
         wScrn=  0.000000 ICntrl=       500 IOpCl=  0 I1Cent=   200000004 NGrid=           0
         NMat0=    1 NMatS0=      1 NMatT0=    0 NMatD0=    1 NMtDS0=    0 NMtDT0=    0
 Petite list used in FoFCou.
 Initial guess orbital symmetries:
       Occupied  (A') (A') (A') (A') (A') (A') (A") (A') (A') (A")
       Virtual   (A') (A') (A') (A') (A") (A') (A') (A') (A") (A')
                 (A") (A') (A') (A") (A') (A') (A') (A') (A') (A')
                 (A") (A') (A") (A') (A") (A') (A") (A') (A") (A')
                 (A") (A') (A") (A') (A') (A') (A') (A') (A") (A')
                 (A") (A') (A') (A') (A") (A") (A') (A") (A') (A')
                 (A') (A') (A') (A') (A") (A') (A') (A") (A') (A")
                 (A") (A') (A') (A") (A') (A") (A') (A') (A') (A")
                 (A") (A') (A') (A') (A") (A') (A") (A') (A') (A")
                 (A') (A") (A') (A') (A") (A") (A') (A') (A") (A")
                 (A') (A') (A') (A') (A') (A") (A') (A") (A') (A')
                 (A') (A') (A") (A') (A") (A') (A") (A') (A") (A")
                 (A') (A') (A") (A') (A") (A') (A') (A") (A") (A')
                 (A') (A') (A") (A') (A') (A') (A') (A')
 The electronic state of the initial guess is 1-A'.
 Keep R1 ints in memory in symmetry-blocked form, NReq=69339737.
 Requested convergence on RMS density matrix=1.00D-08 within 128 cycles.
 Requested convergence on MAX density matrix=1.00D-06.
 Requested convergence on             energy=1.00D-06.
 No special actions if energy rises.
 SCF Done:  E(RHF) =  -200.112219917     A.U. after   10 cycles
            NFock= 10  Conv=0.52D-08     -V/T= 2.0001
 ExpMin= 2.53D-02 ExpMax= 1.95D+04 ExpMxC= 6.65D+02 IAcc=3 IRadAn=         5 AccDes= 0.00D+00
 HarFok:  IExCor=  205 AccDes= 0.00D+00 IRadAn=         5 IDoV=-2 UseB2=F ITyADJ=14
 ICtDFT= 12500011 ScaDFX=  1.000000  1.000000  1.000000  1.000000
 Range of M.O.s used for correlation:     3   138
 NBasis=   138 NAE=    10 NBE=    10 NFC=     2 NFV=     0
 NROrb=    136 NOA=     8 NOB=     8 NVA=   128 NVB=   128

 **** Warning!!: The largest alpha MO coefficient is  0.23059918D+02

 Fully direct method using O(ONN) memory.
 JobTyp=1 Pass  1:  I=   3 to  10 NPSUse= 28 ParTrn=T ParDer=T DoDerP=T.
 Spin components of T(2) and E(2):
     alpha-alpha T2 =       0.1394578179D-01 E2=     -0.7248169134D-01
     alpha-beta  T2 =       0.7493252788D-01 E2=     -0.4186921501D+00
     beta-beta   T2 =       0.1394578179D-01 E2=     -0.7248169134D-01
 ANorm=    0.1050154318D+01
 E2 =    -0.5636555328D+00 EUMP2 =    -0.20067587544969D+03
          IDoAtm=1111
          Differentiating once with respect to electric field.
                with respect to dipole field.
          Differentiating once with respect to nuclear coordinates.
 Keep R1 ints in memory in symmetry-blocked form, NReq=69340661.
          There are     1 degrees of freedom in the 1st order CPHF.  IDoFFX=0 NUNeed=     1.
 LinEq1:  Iter=  0 NonCon=     1 RMS=3.94D-03 Max=4.19D-02 NDo=     1
 AX will form     1 AO Fock derivatives at one time.
 LinEq1:  Iter=  1 NonCon=     1 RMS=5.27D-04 Max=5.38D-03 NDo=     1
 LinEq1:  Iter=  2 NonCon=     1 RMS=1.86D-04 Max=1.58D-03 NDo=     1
 LinEq1:  Iter=  3 NonCon=     1 RMS=3.79D-05 Max=2.75D-04 NDo=     1
 LinEq1:  Iter=  4 NonCon=     1 RMS=7.14D-06 Max=5.03D-05 NDo=     1
 LinEq1:  Iter=  5 NonCon=     1 RMS=2.38D-06 Max=2.49D-05 NDo=     1
 LinEq1:  Iter=  6 NonCon=     1 RMS=5.38D-07 Max=4.78D-06 NDo=     1
 LinEq1:  Iter=  7 NonCon=     1 RMS=6.88D-08 Max=6.17D-07 NDo=     1
 LinEq1:  Iter=  8 NonCon=     1 RMS=1.06D-08 Max=6.36D-08 NDo=     1
 LinEq1:  Iter=  9 NonCon=     1 RMS=1.85D-09 Max=1.54D-08 NDo=     1
 LinEq1:  Iter= 10 NonCon=     1 RMS=3.44D-10 Max=2.88D-09 NDo=     1
 LinEq1:  Iter= 11 NonCon=     0 RMS=4.84D-11 Max=5.15D-10 NDo=     1
 Linear equations converged to 1.000D-10 1.000D-09 after    11 iterations.
 End of Minotr F.D. properties file   721 does not exist.
 End of Minotr F.D. properties file   722 does not exist.
 End of Minotr F.D. properties file   788 does not exist.

 **********************************************************************

            Population analysis using the SCF density.

 **********************************************************************

 Orbital symmetries:
       Occupied  (A') (A') (A') (A') (A') (A') (A") (A') (A') (A")
       Virtual   (A') (A') (A') (A') (A") (A') (A') (A") (A') (A")
                 (A') (A') (A') (A") (A') (A') (A') (A') (A') (A')
                 (A") (A') (A") (A') (A") (A') (A") (A') (A') (A")
                 (A") (A') (A') (A') (A") (A') (A') (A") (A') (A')
                 (A") (A') (A') (A') (A") (A") (A') (A') (A") (A')
                 (A') (A') (A') (A') (A") (A') (A') (A") (A') (A")
                 (A") (A') (A') (A") (A') (A") (A') (A') (A') (A")
                 (A") (A') (A') (A") (A') (A') (A') (A") (A') (A")
                 (A") (A') (A') (A") (A') (A') (A") (A') (A") (A")
                 (A') (A') (A') (A') (A') (A") (A') (A") (A') (A')
                 (A') (A') (A") (A") (A') (A') (A") (A') (A") (A")
                 (A') (A') (A") (A') (A') (A") (A') (A") (A') (A")
                 (A') (A') (A") (A') (A') (A') (A') (A')
 The electronic state is 1-A'.
 Alpha  occ. eigenvalues --  -26.37363 -26.23443  -1.69125  -1.54721  -0.87484
 Alpha  occ. eigenvalues --   -0.78358  -0.73132  -0.65740  -0.59605  -0.59549
 Alpha virt. eigenvalues --    0.01435   0.06610   0.12407   0.14538   0.15918
 Alpha virt. eigenvalues --    0.18511   0.21136   0.24328   0.25354   0.27425
 Alpha virt. eigenvalues --    0.28705   0.30662   0.35360   0.39208   0.39616
 Alpha virt. eigenvalues --    0.46971   0.50530   0.65861   0.68172   0.70300
 Alpha virt. eigenvalues --    0.74537   0.76403   0.79553   0.83798   0.85938
 Alpha virt. eigenvalues --    0.89337   0.92332   0.92975   0.95652   1.01850
 Alpha virt. eigenvalues --    1.03856   1.06502   1.09360   1.12820   1.15778
 Alpha virt. eigenvalues --    1.17100   1.20664   1.25718   1.26248   1.30243
 Alpha virt. eigenvalues --    1.34960   1.40577   1.41945   1.63223   1.67597
 Alpha virt. eigenvalues --    1.71715   1.79387   1.86004   1.87463   1.92403
 Alpha virt. eigenvalues --    2.06594   2.24589   2.58266   2.73746   2.78646
 Alpha virt. eigenvalues --    2.79021   2.80372   2.82019   2.86213   2.86738
 Alpha virt. eigenvalues --    2.97271   2.97297   3.01307   3.04107   3.06772
 Alpha virt. eigenvalues --    3.10802   3.16010   3.18470   3.24251   3.32080
 Alpha virt. eigenvalues --    3.36754   3.40618   3.51430   3.53013   3.59268
 Alpha virt. eigenvalues --    3.86165   3.95370   3.96291   4.06510   4.11893
 Alpha virt. eigenvalues --    4.25848   4.26541   4.36044   4.45600   4.50784
 Alpha virt. eigenvalues --    4.58885   4.68866   4.75052   4.94296   5.07924
 Alpha virt. eigenvalues --    5.10052   5.14958   5.19225   5.60640   5.71857
 Alpha virt. eigenvalues --    6.04997   6.14154   6.43578   6.55106   7.02038
 Alpha virt. eigenvalues --    7.60720   7.84576   8.84797   8.87835   8.87838
 Alpha virt. eigenvalues --    8.90754   9.04348   9.06543   9.13138   9.18686
 Alpha virt. eigenvalues --    9.25738   9.32301   9.38010   9.38283   9.40841
 Alpha virt. eigenvalues --    9.42202   9.45040   9.48884   9.62365   9.63970
 Alpha virt. eigenvalues --    9.69674   9.76062   9.81053   9.94153  10.13399
 Alpha virt. eigenvalues --   10.52709  15.93653  16.53190
          Condensed to atoms (all electrons):
               1          2          3          4
     1  F    9.424744   0.143605  -0.117093   0.004676
     2  H    0.143605   0.548631  -0.099468  -0.001582
     3  F   -0.117093  -0.099468   9.410431   0.182679
     4  H    0.004676  -0.001582   0.182679   0.390561
 Mulliken charges:
               1
     1  F   -0.455931
     2  H    0.408814
     3  F   -0.376549
     4  H    0.423667
 Sum of Mulliken charges =   0.00000
 Mulliken charges with hydrogens summed into heavy atoms:
               1
     1  F   -0.047118
     3  F    0.047118
 Electronic spatial extent (au):  <R**2>=            115.6950
 Charge=              0.0000 electrons
 Dipole moment (field-independent basis, Debye):
    X=             -1.7841    Y=             -3.8985    Z=             -0.0000  Tot=              4.2873
 Quadrupole moment (field-independent basis, Debye-Ang):
   XX=             -9.4221   YY=            -10.9516   ZZ=            -11.3035
   XY=              2.9023   XZ=             -0.0000   YZ=             -0.0000
 Traceless Quadrupole moment (field-independent basis, Debye-Ang):
   XX=              1.1370   YY=             -0.3926   ZZ=             -0.7444
   XY=              2.9023   XZ=             -0.0000   YZ=             -0.0000
 Octapole moment (field-independent basis, Debye-Ang**2):
  XXX=             -1.7678  YYY=            -10.8594  ZZZ=             -0.0000  XYY=             -4.9402
  XXY=             -3.4662  XXZ=             -0.0000  XZZ=             -0.1388  YZZ=             -0.6898
  YYZ=             -0.0000  XYZ=             -0.0000
 Hexadecapole moment (field-independent basis, Debye-Ang**3):
 XXXX=             -7.0606 YYYY=            -82.7239 ZZZZ=             -7.4526 XXXY=              0.8656
 XXXZ=             -0.0000 YYYX=              6.0105 YYYZ=             -0.0000 ZZZX=             -0.0000
 ZZZY=             -0.0000 XXYY=            -12.6628 XXZZ=             -2.6152 YYZZ=            -16.6656
 XXYZ=             -0.0000 YYXZ=             -0.0000 ZZXY=             -0.4162
 N-N= 3.490502769351D+01 E-N=-5.499612094379D+02  KE= 2.000971217679D+02
 Symmetry A'   KE= 1.876108997415D+02
 Symmetry A"   KE= 1.248622202645D+01
 Breneman (CHELPG) radii used.
 Generate Potential Derived Charges using the Breneman model, NDens= 1.
 Grid spacing= 0.300 Box extension= 2.800
 NStep X,Y,Z=   23     28     20   Total possible points=       12880
 Number of Points to Fit=    4632

 **********************************************************************

            Electrostatic Properties Using The SCF Density

 **********************************************************************

       Atomic Center    1 is at   0.040607  1.193358  0.000000
       Atomic Center    2 is at   0.040607  0.265558  0.000000
       Atomic Center    3 is at   0.040607 -1.056342 -0.000000
       Atomic Center    4 is at  -0.771532 -1.498706 -0.000000
    4632 points will be used for fitting atomic charges
 Fitting point charges to electrostatic potential
 Charges from ESP fit, RMS=   0.00255 RRMS=   0.07917:
 ESP charges:
               1
     1  F   -0.495589
     2  H    0.385864
     3  F   -0.357648
     4  H    0.467373
 Sum of ESP charges =  -0.00000
 ESP charges with hydrogens summed into heavy atoms:
               1
     1  F   -0.109725
     3  F    0.109725
 Charge=  -0.00000 Dipole=    -1.8232    -3.8983    -0.0000 Tot=     4.3036
 -----------------------------------------------------------------

              Electrostatic Properties (Atomic Units)

 -----------------------------------------------------------------
    Center     Electric         -------- Electric Field --------
               Potential          X             Y             Z
 -----------------------------------------------------------------
    1 Atom    -26.644614
    2 Atom     -0.947527
    3 Atom    -26.506865
    4 Atom     -0.840317
 -----------------------------------------------------------------
 Calling FoFJK, ICntrl=  10002127 FMM=F ISym2X=1 I1Cent= 0 IOpClX= 0 NMat=1 NMatS=1 NMatT=0.
 ***** Axes restored to original set *****
 -------------------------------------------------------------------
 Center     Atomic                   Forces (Hartrees/Bohr)
 Number     Number              X              Y              Z
 -------------------------------------------------------------------
      1        9          -0.033763372   -0.000000000    0.000420153
      2        1          -0.010750380   -0.000000000   -0.000373227
      3        9           0.043408132    0.000000000   -0.003098139
      4        1           0.001105621   -0.000000000    0.003051212
 -------------------------------------------------------------------
 Cartesian Forces:  Max     0.043408132 RMS     0.016228187
 -----------------------------------------------------------------------------------------------
                       Internal Coordinate Forces (Hartree/Bohr or radian)
  Cent   Atom   N1       Length/X         N2         Alpha/Y        N3         Beta/Z          J
 -----------------------------------------------------------------------------------------------
      1  F 
         X        1   0.000000(     1)
      2  H        1  -0.010750(     2)      2   0.000654(     6)
      3  F        1   0.044514(     3)      2  -0.000654(     7)      3  -0.000000(    10)     0
         X        4   0.000000(     4)      1   0.000000(     8)      2   0.000000(    11)     0
      4  H        4   0.003208(     5)      5   0.000000(     9)      1  -0.000854(    12)     0
 -----------------------------------------------------------------------------------------------
 Internal  Forces:  Max     0.044513753 RMS     0.013256834

 GradGradGradGradGradGradGradGradGradGradGradGradGradGradGradGradGradGrad
 Berny optimization.
 Search for a local minimum.
 Step number   1 out of a maximum of   20
 All quantities printed in internal units (Hartrees-Bohrs-Radians)
 Second derivative matrix not updated -- first step.
 The second derivative matrix:
                          R1        D1        Rah       Rab
           R1           0.63789
           D1          -0.00000   0.16000
           Rah         -0.00000   0.00000   0.63018
           Rab          0.00000   0.00000   0.00000   0.05462
 ITU=  0
     Eigenvalues ---    0.16000   0.63018   0.637891000.00000
 RFO step:  Lambda=-2.04015063D-04 EMin= 1.60000000D-01
 Linear search not attempted -- first point.
 Variable       Old X    -DE/DX   Delta X   Delta X   Delta X     New X
                                 (Linear)    (Quad)   (Total)
    R1        1.74762   0.00321   0.00000   0.00503   0.00503   1.75265
    D1        2.06955  -0.00085   0.00000  -0.00533  -0.00533   2.06422
   Rah        1.75329  -0.01075   0.00000  -0.01705  -0.01705   1.73623
   Rab        4.25132   0.04451   0.00000   0.00000   0.00000   4.25132
         Item               Value     Threshold  Converged?
 Maximum Force            0.010750     0.000450     NO 
 RMS     Force            0.006496     0.000300     NO 
 Maximum Displacement     0.017054     0.001800     NO 
 RMS     Displacement     0.009281     0.001200     NO 
 Predicted change in Energy=-1.020427D-04
 GradGradGradGradGradGradGradGradGradGradGradGradGradGradGradGradGradGrad

 ---------------------------------------------------------------------------------------------------
                            Z-MATRIX (ANGSTROMS AND DEGREES)
   CD    Cent   Atom    N1       Length/X        N2       Alpha/Y        N3        Beta/Z          J
 ---------------------------------------------------------------------------------------------------
      1      1  F 
      2         X        1   1.000000(     1)
      3      2  H        1   0.918776(     2)      2   90.000(     6)
      4      3  F        1   2.249700(     3)      2   90.000(     7)      3    0.000(    10)      0
      5         X        4   1.000000(     4)      1   90.000(     8)      2   90.000(    11)      0
      6      4  H        4   0.927461(     5)      5   90.000(     9)      1  118.271(    12)      0
 ---------------------------------------------------------------------------------------------------
                         Z-Matrix orientation:                         
 ---------------------------------------------------------------------
 Center     Atomic      Atomic             Coordinates (Angstroms)
 Number     Number       Type             X           Y           Z
 ---------------------------------------------------------------------
      1          9           0        0.000000    0.000000    0.000000
      2         -1           0        0.000000    0.000000    1.000000
      3          1           0        0.918776    0.000000    0.000000
      4          9           0        2.249700    0.000000    0.000000
      5         -1           0        2.249700   -1.000000    0.000000
      6          1           0        2.688990   -0.000000    0.816828
 ---------------------------------------------------------------------
                    Distance matrix (angstroms):
                    1          2          3          4          5
     1  F    0.000000
     2  X    1.000000   0.000000
     3  H    0.918776   1.357994   0.000000
     4  F    2.249700   2.461940   1.330924   0.000000
     5  X    2.461940   2.657282   1.664740   1.000000   0.000000
     6  H    2.810315   2.695221   1.949581   0.927461   1.363885
                    6
     6  H    0.000000
 Stoichiometry    F2H2
 Framework group  CS[SG(F2H2)]
 Deg. of freedom     5
 Full point group                 CS      NOp   2
 Largest Abelian subgroup         CS      NOp   2
 Largest concise Abelian subgroup C1      NOp   1
                         Standard orientation:                         
 ---------------------------------------------------------------------
 Center     Atomic      Atomic             Coordinates (Angstroms)
 Number     Number       Type             X           Y           Z
 ---------------------------------------------------------------------
      1          9           0        0.040841    1.192753    0.000000
      2          1           0        0.040841    0.273978    0.000000
      3          9           0        0.040841   -1.056947    0.000000
      4          1           0       -0.775987   -1.496236    0.000000
 ---------------------------------------------------------------------
 Rotational constants (GHZ):         810.2755697           9.9935889           9.8718340
 Standard basis: Aug-CC-pVTZ (5D, 7F)
 There are   110 symmetry adapted cartesian basis functions of A'  symmetry.
 There are    50 symmetry adapted cartesian basis functions of A"  symmetry.
 There are    92 symmetry adapted basis functions of A'  symmetry.
 There are    46 symmetry adapted basis functions of A"  symmetry.
   138 basis functions,   198 primitive gaussians,   160 cartesian basis functions
    10 alpha electrons       10 beta electrons
       nuclear repulsion energy        34.9161689568 Hartrees.
 NAtoms=    4 NActive=    4 NUniq=    4 SFac= 1.00D+00 NAtFMM=   60 NAOKFM=F Big=F
 Integral buffers will be    131072 words long.
 Raffenetti 1 integral format.
 Two-electron integral symmetry is turned on.
 One-electron integrals computed using PRISM.
 NBasis=   138 RedAO= T EigKep=  1.35D-04  NBF=    92    46
 NBsUse=   138 1.00D-06 EigRej= -1.00D+00 NBFU=    92    46
 Initial guess from the checkpoint file:  "/gscratch/scrubbed/gds001/Gau-12543.chk"
 B after Tr=    -0.000000    0.000000    0.000000
         Rot=    1.000000    0.000000    0.000000    0.000175 Ang=   0.02 deg.
 Initial guess orbital symmetries:
       Occupied  (A') (A') (A') (A') (A') (A') (A") (A') (A') (A")
       Virtual   (A') (A') (A') (A') (A") (A') (A') (A") (A') (A")
                 (A') (A') (A') (A") (A') (A') (A') (A') (A') (A')
                 (A") (A') (A") (A') (A") (A') (A") (A') (A') (A")
                 (A") (A') (A') (A') (A") (A') (A') (A") (A') (A')
                 (A") (A') (A') (A') (A") (A") (A') (A') (A") (A')
                 (A') (A') (A') (A') (A") (A') (A') (A") (A') (A")
                 (A") (A') (A') (A") (A') (A") (A') (A') (A') (A")
                 (A") (A') (A') (A") (A') (A') (A') (A") (A') (A")
                 (A") (A') (A') (A") (A') (A') (A") (A') (A") (A")
                 (A') (A') (A') (A') (A') (A") (A') (A") (A') (A')
                 (A') (A') (A") (A") (A') (A') (A") (A') (A") (A")
                 (A') (A') (A") (A') (A') (A") (A') (A") (A') (A")
                 (A') (A') (A") (A') (A') (A') (A') (A')
 Keep R1 ints in memory in symmetry-blocked form, NReq=69339737.
 Requested convergence on RMS density matrix=1.00D-08 within 128 cycles.
 Requested convergence on MAX density matrix=1.00D-06.
 Requested convergence on             energy=1.00D-06.
 No special actions if energy rises.
 SCF Done:  E(RHF) =  -200.112664451     A.U. after    9 cycles
            NFock=  9  Conv=0.30D-08     -V/T= 2.0000
 ExpMin= 2.53D-02 ExpMax= 1.95D+04 ExpMxC= 6.65D+02 IAcc=3 IRadAn=         5 AccDes= 0.00D+00
 HarFok:  IExCor=  205 AccDes= 0.00D+00 IRadAn=         5 IDoV=-2 UseB2=F ITyADJ=14
 ICtDFT= 12500011 ScaDFX=  1.000000  1.000000  1.000000  1.000000
 Range of M.O.s used for correlation:     3   138
 NBasis=   138 NAE=    10 NBE=    10 NFC=     2 NFV=     0
 NROrb=    136 NOA=     8 NOB=     8 NVA=   128 NVB=   128

 **** Warning!!: The largest alpha MO coefficient is  0.23949356D+02

 Fully direct method using O(ONN) memory.
 JobTyp=1 Pass  1:  I=   3 to  10 NPSUse= 28 ParTrn=T ParDer=T DoDerP=T.
 Spin components of T(2) and E(2):
     alpha-alpha T2 =       0.1391829077D-01 E2=     -0.7242143081D-01
     alpha-beta  T2 =       0.7481847211D-01 E2=     -0.4184782369D+00
     beta-beta   T2 =       0.1391829077D-01 E2=     -0.7242143081D-01
 ANorm=    0.1050073832D+01
 E2 =    -0.5633210985D+00 EUMP2 =    -0.20067598554943D+03
          IDoAtm=1111
          Differentiating once with respect to electric field.
                with respect to dipole field.
          Differentiating once with respect to nuclear coordinates.
 Keep R1 ints in memory in symmetry-blocked form, NReq=69340661.
          There are     1 degrees of freedom in the 1st order CPHF.  IDoFFX=0 NUNeed=     1.
 LinEq1:  Iter=  0 NonCon=     1 RMS=3.92D-03 Max=4.21D-02 NDo=     1
 AX will form     1 AO Fock derivatives at one time.
 LinEq1:  Iter=  1 NonCon=     1 RMS=5.25D-04 Max=5.46D-03 NDo=     1
 LinEq1:  Iter=  2 NonCon=     1 RMS=1.85D-04 Max=1.56D-03 NDo=     1
 LinEq1:  Iter=  3 NonCon=     1 RMS=3.76D-05 Max=2.63D-04 NDo=     1
 LinEq1:  Iter=  4 NonCon=     1 RMS=6.40D-06 Max=4.39D-05 NDo=     1
 LinEq1:  Iter=  5 NonCon=     1 RMS=2.06D-06 Max=2.01D-05 NDo=     1
 LinEq1:  Iter=  6 NonCon=     1 RMS=5.16D-07 Max=4.69D-06 NDo=     1
 LinEq1:  Iter=  7 NonCon=     1 RMS=6.40D-08 Max=5.76D-07 NDo=     1
 LinEq1:  Iter=  8 NonCon=     1 RMS=1.01D-08 Max=6.32D-08 NDo=     1
 LinEq1:  Iter=  9 NonCon=     1 RMS=1.79D-09 Max=1.41D-08 NDo=     1
 LinEq1:  Iter= 10 NonCon=     1 RMS=3.44D-10 Max=2.87D-09 NDo=     1
 LinEq1:  Iter= 11 NonCon=     0 RMS=4.78D-11 Max=4.66D-10 NDo=     1
 Linear equations converged to 1.000D-10 1.000D-09 after    11 iterations.
 End of Minotr F.D. properties file   721 does not exist.
 End of Minotr F.D. properties file   722 does not exist.
 End of Minotr F.D. properties file   788 does not exist.
 Calling FoFJK, ICntrl=  10002127 FMM=F ISym2X=1 I1Cent= 0 IOpClX= 0 NMat=1 NMatS=1 NMatT=0.
 ***** Axes restored to original set *****
 -------------------------------------------------------------------
 Center     Atomic                   Forces (Hartrees/Bohr)
 Number     Number              X              Y              Z
 -------------------------------------------------------------------
      1        9          -0.043174561   -0.000000000    0.000442085
      2        1          -0.000645561   -0.000000000   -0.000514910
      3        9           0.044092623   -0.000000000   -0.000124438
      4        1          -0.000272501   -0.000000000    0.000197263
 -------------------------------------------------------------------
 Cartesian Forces:  Max     0.044092623 RMS     0.017816678
 -----------------------------------------------------------------------------------------------
                       Internal Coordinate Forces (Hartree/Bohr or radian)
  Cent   Atom   N1       Length/X         N2         Alpha/Y        N3         Beta/Z          J
 -----------------------------------------------------------------------------------------------
      1  F 
         X        1   0.000000(     1)
      2  H        1  -0.000646(     2)      2   0.000894(     6)
      3  F        1   0.043820(     3)      2  -0.000894(     7)      3   0.000000(    10)     0
         X        4   0.000000(     4)      1   0.000000(     8)      2   0.000000(    11)     0
      4  H        4   0.000045(     5)      5   0.000000(     9)      1  -0.000584(    12)     0
 -----------------------------------------------------------------------------------------------
 Internal  Forces:  Max     0.043820122 RMS     0.012657546

 GradGradGradGradGradGradGradGradGradGradGradGradGradGradGradGradGradGrad
 Berny optimization.
 Search for a local minimum.
 Step number   2 out of a maximum of   20
 All quantities printed in internal units (Hartrees-Bohrs-Radians)
 Update second derivatives using D2CorN and points    1    2
 DE= -1.10D-04 DEPred=-1.02D-04 R= 1.08D+00
 TightC=F SS=  1.41D+00  RLast= 1.86D-02 DXNew= 5.0454D-01 5.5683D-02
 Trust test= 1.08D+00 RLast= 1.86D-02 DXMaxT set to 3.00D-01
 The second derivative matrix:
                          R1        D1        Rah       Rab
           R1           0.63726
           D1           0.00459   0.15098
           Rah          0.00577  -0.01940   0.59840
           Rab          0.00506  -0.00537  -0.01717   0.05462
 ITU=  1  0
     Eigenvalues ---    0.15009   0.59844   0.638101000.00000
 RFO step:  Lambda=-2.11420073D-06 EMin= 1.50088345D-01
 Quartic linear search produced a step of  0.07335.
 Variable       Old X    -DE/DX   Delta X   Delta X   Delta X     New X
                                 (Linear)    (Quad)   (Total)
    R1        1.75265   0.00004   0.00037  -0.00028   0.00009   1.75274
    D1        2.06422  -0.00058  -0.00039  -0.00368  -0.00407   2.06016
   Rah        1.73623  -0.00065  -0.00125   0.00008  -0.00117   1.73506
   Rab        4.25132   0.04382   0.00000   0.00000   0.00000   4.25132
         Item               Value     Threshold  Converged?
 Maximum Force            0.000646     0.000450     NO 
 RMS     Force            0.000503     0.000300     NO 
 Maximum Displacement     0.004067     0.001800     NO 
 RMS     Displacement     0.002117     0.001200     NO 
 Predicted change in Energy=-1.569904D-06
 GradGradGradGradGradGradGradGradGradGradGradGradGradGradGradGradGradGrad

 ---------------------------------------------------------------------------------------------------
                            Z-MATRIX (ANGSTROMS AND DEGREES)
   CD    Cent   Atom    N1       Length/X        N2       Alpha/Y        N3        Beta/Z          J
 ---------------------------------------------------------------------------------------------------
      1      1  F 
      2         X        1   1.000000(     1)
      3      2  H        1   0.918156(     2)      2   90.000(     6)
      4      3  F        1   2.249700(     3)      2   90.000(     7)      3    0.000(    10)      0
      5         X        4   1.000000(     4)      1   90.000(     8)      2   90.000(    11)      0
      6      4  H        4   0.927509(     5)      5   90.000(     9)      1  118.038(    12)      0
 ---------------------------------------------------------------------------------------------------
                         Z-Matrix orientation:                         
 ---------------------------------------------------------------------
 Center     Atomic      Atomic             Coordinates (Angstroms)
 Number     Number       Type             X           Y           Z
 ---------------------------------------------------------------------
      1          9           0        0.000000    0.000000    0.000000
      2         -1           0        0.000000    0.000000    1.000000
      3          1           0        0.918156    0.000000    0.000000
      4          9           0        2.249700    0.000000    0.000000
      5         -1           0        2.249700   -1.000000    0.000000
      6          1           0        2.685686   -0.000000    0.818650
 ---------------------------------------------------------------------
                    Distance matrix (angstroms):
                    1          2          3          4          5
     1  F    0.000000
     2  X    1.000000   0.000000
     3  H    0.918156   1.357575   0.000000
     4  F    2.249700   2.461940   1.331544   0.000000
     5  X    2.461940   2.657282   1.665236   1.000000   0.000000
     6  H    2.807686   2.691802   1.947910   0.927509   1.363918
                    6
     6  H    0.000000
 Stoichiometry    F2H2
 Framework group  CS[SG(F2H2)]
 Deg. of freedom     5
 Full point group                 CS      NOp   2
 Largest Abelian subgroup         CS      NOp   2
 Largest concise Abelian subgroup C1      NOp   1
                         Standard orientation:                         
 ---------------------------------------------------------------------
 Center     Atomic      Atomic             Coordinates (Angstroms)
 Number     Number       Type             X           Y           Z
 ---------------------------------------------------------------------
      1          9           0        0.040933    1.192557    0.000000
      2          1           0        0.040933    0.274401    0.000000
      3          9           0        0.040933   -1.057143   -0.000000
      4          1           0       -0.777718   -1.493129   -0.000000
 ---------------------------------------------------------------------
 Rotational constants (GHZ):         806.5108765           9.9955377           9.8731739
 Standard basis: Aug-CC-pVTZ (5D, 7F)
 There are   110 symmetry adapted cartesian basis functions of A'  symmetry.
 There are    50 symmetry adapted cartesian basis functions of A"  symmetry.
 There are    92 symmetry adapted basis functions of A'  symmetry.
 There are    46 symmetry adapted basis functions of A"  symmetry.
   138 basis functions,   198 primitive gaussians,   160 cartesian basis functions
    10 alpha electrons       10 beta electrons
       nuclear repulsion energy        34.9195578760 Hartrees.
 NAtoms=    4 NActive=    4 NUniq=    4 SFac= 1.00D+00 NAtFMM=   60 NAOKFM=F Big=F
 Integral buffers will be    131072 words long.
 Raffenetti 1 integral format.
 Two-electron integral symmetry is turned on.
 One-electron integrals computed using PRISM.
 NBasis=   138 RedAO= T EigKep=  1.35D-04  NBF=    92    46
 NBsUse=   138 1.00D-06 EigRej= -1.00D+00 NBFU=    92    46
 Initial guess from the checkpoint file:  "/gscratch/scrubbed/gds001/Gau-12543.chk"
 B after Tr=    -0.000000   -0.000000    0.000000
         Rot=    1.000000    0.000000    0.000000    0.000102 Ang=   0.01 deg.
 Initial guess orbital symmetries:
       Occupied  (A') (A') (A') (A') (A') (A') (A") (A') (A') (A")
       Virtual   (A') (A') (A') (A') (A") (A') (A') (A") (A') (A")
                 (A') (A') (A') (A") (A') (A') (A') (A') (A') (A')
                 (A") (A') (A") (A') (A") (A') (A") (A') (A') (A")
                 (A") (A') (A') (A') (A") (A') (A') (A") (A') (A')
                 (A") (A') (A') (A') (A") (A") (A') (A') (A") (A')
                 (A') (A') (A') (A') (A") (A') (A') (A") (A') (A")
                 (A") (A') (A') (A") (A') (A") (A') (A') (A') (A")
                 (A") (A') (A') (A") (A') (A') (A') (A") (A') (A")
                 (A") (A') (A') (A") (A') (A') (A") (A') (A") (A")
                 (A') (A') (A') (A') (A') (A") (A') (A") (A') (A')
                 (A') (A') (A") (A") (A') (A') (A") (A') (A") (A")
                 (A') (A') (A") (A') (A') (A") (A') (A") (A') (A")
                 (A') (A') (A") (A') (A') (A') (A') (A')
 Keep R1 ints in memory in symmetry-blocked form, NReq=69339737.
 Requested convergence on RMS density matrix=1.00D-08 within 128 cycles.
 Requested convergence on MAX density matrix=1.00D-06.
 Requested convergence on             energy=1.00D-06.
 No special actions if energy rises.
 SCF Done:  E(RHF) =  -200.112692286     A.U. after    7 cycles
            NFock=  7  Conv=0.46D-08     -V/T= 2.0000
 ExpMin= 2.53D-02 ExpMax= 1.95D+04 ExpMxC= 6.65D+02 IAcc=3 IRadAn=         5 AccDes= 0.00D+00
 HarFok:  IExCor=  205 AccDes= 0.00D+00 IRadAn=         5 IDoV=-2 UseB2=F ITyADJ=14
 ICtDFT= 12500011 ScaDFX=  1.000000  1.000000  1.000000  1.000000
 Range of M.O.s used for correlation:     3   138
 NBasis=   138 NAE=    10 NBE=    10 NFC=     2 NFV=     0
 NROrb=    136 NOA=     8 NOB=     8 NVA=   128 NVB=   128

 **** Warning!!: The largest alpha MO coefficient is  0.24007872D+02

 Fully direct method using O(ONN) memory.
 JobTyp=1 Pass  1:  I=   3 to  10 NPSUse= 28 ParTrn=T ParDer=T DoDerP=T.
 Spin components of T(2) and E(2):
     alpha-alpha T2 =       0.1391603282D-01 E2=     -0.7241707265D-01
     alpha-beta  T2 =       0.7480822340D-01 E2=     -0.4184616243D+00
     beta-beta   T2 =       0.1391603282D-01 E2=     -0.7241707265D-01
 ANorm=    0.1050066802D+01
 E2 =    -0.5632957696D+00 EUMP2 =    -0.20067598805558D+03
          IDoAtm=1111
          Differentiating once with respect to electric field.
                with respect to dipole field.
          Differentiating once with respect to nuclear coordinates.
 Keep R1 ints in memory in symmetry-blocked form, NReq=69340661.
          There are     1 degrees of freedom in the 1st order CPHF.  IDoFFX=0 NUNeed=     1.
 LinEq1:  Iter=  0 NonCon=     1 RMS=3.92D-03 Max=4.21D-02 NDo=     1
 AX will form     1 AO Fock derivatives at one time.
 LinEq1:  Iter=  1 NonCon=     1 RMS=5.25D-04 Max=5.47D-03 NDo=     1
 LinEq1:  Iter=  2 NonCon=     1 RMS=1.85D-04 Max=1.56D-03 NDo=     1
 LinEq1:  Iter=  3 NonCon=     1 RMS=3.76D-05 Max=2.63D-04 NDo=     1
 LinEq1:  Iter=  4 NonCon=     1 RMS=6.36D-06 Max=4.36D-05 NDo=     1
 LinEq1:  Iter=  5 NonCon=     1 RMS=2.04D-06 Max=1.97D-05 NDo=     1
 LinEq1:  Iter=  6 NonCon=     1 RMS=5.15D-07 Max=4.70D-06 NDo=     1
 LinEq1:  Iter=  7 NonCon=     1 RMS=6.38D-08 Max=5.75D-07 NDo=     1
 LinEq1:  Iter=  8 NonCon=     1 RMS=1.01D-08 Max=6.34D-08 NDo=     1
 LinEq1:  Iter=  9 NonCon=     1 RMS=1.79D-09 Max=1.40D-08 NDo=     1
 LinEq1:  Iter= 10 NonCon=     1 RMS=3.43D-10 Max=2.86D-09 NDo=     1
 LinEq1:  Iter= 11 NonCon=     0 RMS=4.77D-11 Max=4.63D-10 NDo=     1
 Linear equations converged to 1.000D-10 1.000D-09 after    11 iterations.
 End of Minotr F.D. properties file   721 does not exist.
 End of Minotr F.D. properties file   722 does not exist.
 End of Minotr F.D. properties file   788 does not exist.
 Calling FoFJK, ICntrl=  10002127 FMM=F ISym2X=1 I1Cent= 0 IOpClX= 0 NMat=1 NMatS=1 NMatT=0.
 ***** Axes restored to original set *****
 -------------------------------------------------------------------
 Center     Atomic                   Forces (Hartrees/Bohr)
 Number     Number              X              Y              Z
 -------------------------------------------------------------------
      1        9          -0.043883304   -0.000000000    0.000463988
      2        1           0.000111267    0.000000000   -0.000588130
      3        9           0.044019433    0.000000000   -0.000009301
      4        1          -0.000247397   -0.000000000    0.000133444
 -------------------------------------------------------------------
 Cartesian Forces:  Max     0.044019433 RMS     0.017944608
 -----------------------------------------------------------------------------------------------
                       Internal Coordinate Forces (Hartree/Bohr or radian)
  Cent   Atom   N1       Length/X         N2         Alpha/Y        N3         Beta/Z          J
 -----------------------------------------------------------------------------------------------
      1  F 
         X        1   0.000000(     1)
      2  H        1   0.000111(     2)      2   0.001020(     6)
      3  F        1   0.043772(     3)      2  -0.001020(     7)      3  -0.000000(    10)     0
         X        4   0.000000(     4)      1   0.000000(     8)      2   0.000000(    11)     0
      4  H        4   0.000001(     5)      5  -0.000000(     9)      1  -0.000493(    12)     0
 -----------------------------------------------------------------------------------------------
 Internal  Forces:  Max     0.043772037 RMS     0.012643605

 GradGradGradGradGradGradGradGradGradGradGradGradGradGradGradGradGradGrad
 Berny optimization.
 Search for a local minimum.
 Step number   3 out of a maximum of   20
 All quantities printed in internal units (Hartrees-Bohrs-Radians)
 Update second derivatives using D2CorN and points    1    2    3
 DE= -2.51D-06 DEPred=-1.57D-06 R= 1.60D+00
 TightC=F SS=  1.41D+00  RLast= 4.23D-03 DXNew= 5.0454D-01 1.2701D-02
 Trust test= 1.60D+00 RLast= 4.23D-03 DXMaxT set to 3.00D-01
 The second derivative matrix:
                          R1        D1        Rah       Rab
           R1           0.63842
           D1           0.00640   0.03987
           Rah          0.00183  -0.02546   0.61676
           Rab          0.00704  -0.00703  -0.02377   0.05462
 ITU=  1  1  0
     Eigenvalues ---    0.03868   0.61776   0.638611000.00000
 RFO step:  Lambda=-4.80896225D-06 EMin= 3.86811933D-02
 Quartic linear search produced a step of  1.47030.
 Variable       Old X    -DE/DX   Delta X   Delta X   Delta X     New X
                                 (Linear)    (Quad)   (Total)
    R1        1.75274   0.00000   0.00013  -0.00002   0.00011   1.75285
    D1        2.06016  -0.00049  -0.00598  -0.00782  -0.01380   2.04636
   Rah        1.73506   0.00011  -0.00172   0.00166  -0.00006   1.73500
   Rab        4.25132   0.04377   0.00000   0.00000   0.00000   4.25132
         Item               Value     Threshold  Converged?
 Maximum Force            0.000493     0.000450     NO 
 RMS     Force            0.000292     0.000300     YES
 Maximum Displacement     0.013797     0.001800     NO 
 RMS     Displacement     0.006899     0.001200     NO 
 Predicted change in Energy=-3.021426D-06
 GradGradGradGradGradGradGradGradGradGradGradGradGradGradGradGradGradGrad

 ---------------------------------------------------------------------------------------------------
                            Z-MATRIX (ANGSTROMS AND DEGREES)
   CD    Cent   Atom    N1       Length/X        N2       Alpha/Y        N3        Beta/Z          J
 ---------------------------------------------------------------------------------------------------
      1      1  F 
      2         X        1   1.000000(     1)
      3      2  H        1   0.918125(     2)      2   90.000(     6)
      4      3  F        1   2.249700(     3)      2   90.000(     7)      3    0.000(    10)      0
      5         X        4   1.000000(     4)      1   90.000(     8)      2   90.000(    11)      0
      6      4  H        4   0.927567(     5)      5   90.000(     9)      1  117.248(    12)      0
 ---------------------------------------------------------------------------------------------------
                         Z-Matrix orientation:                         
 ---------------------------------------------------------------------
 Center     Atomic      Atomic             Coordinates (Angstroms)
 Number     Number       Type             X           Y           Z
 ---------------------------------------------------------------------
      1          9           0        0.000000    0.000000    0.000000
      2         -1           0        0.000000    0.000000    1.000000
      3          1           0        0.918125    0.000000    0.000000
      4          9           0        2.249700    0.000000    0.000000
      5         -1           0        2.249700   -1.000000    0.000000
      6          1           0        2.674376   -0.000000    0.824639
 ---------------------------------------------------------------------
                    Distance matrix (angstroms):
                    1          2          3          4          5
     1  F    0.000000
     2  X    1.000000   0.000000
     3  H    0.918125   1.357554   0.000000
     4  F    2.249700   2.461940   1.331575   0.000000
     5  X    2.461940   2.657282   1.665261   1.000000   0.000000
     6  H    2.798628   2.680119   1.940219   0.927567   1.363957
                    6
     6  H    0.000000
 Stoichiometry    F2H2
 Framework group  CS[SG(F2H2)]
 Deg. of freedom     5
 Full point group                 CS      NOp   2
 Largest Abelian subgroup         CS      NOp   2
 Largest concise Abelian subgroup C1      NOp   1
                         Standard orientation:                         
 ---------------------------------------------------------------------
 Center     Atomic      Atomic             Coordinates (Angstroms)
 Number     Number       Type             X           Y           Z
 ---------------------------------------------------------------------
      1          9           0        0.041232    1.191990    0.000000
      2          1           0        0.041232    0.273866    0.000000
      3          9           0        0.041232   -1.057710   -0.000000
      4          1           0       -0.783407   -1.482386   -0.000000
 ---------------------------------------------------------------------
 Rotational constants (GHZ):         794.2944481          10.0023890           9.8779974
 Standard basis: Aug-CC-pVTZ (5D, 7F)
 There are   110 symmetry adapted cartesian basis functions of A'  symmetry.
 There are    50 symmetry adapted cartesian basis functions of A"  symmetry.
 There are    92 symmetry adapted basis functions of A'  symmetry.
 There are    46 symmetry adapted basis functions of A"  symmetry.
   138 basis functions,   198 primitive gaussians,   160 cartesian basis functions
    10 alpha electrons       10 beta electrons
       nuclear repulsion energy        34.9258962990 Hartrees.
 NAtoms=    4 NActive=    4 NUniq=    4 SFac= 1.00D+00 NAtFMM=   60 NAOKFM=F Big=F
 Integral buffers will be    131072 words long.
 Raffenetti 1 integral format.
 Two-electron integral symmetry is turned on.
 One-electron integrals computed using PRISM.
 NBasis=   138 RedAO= T EigKep=  1.35D-04  NBF=    92    46
 NBsUse=   138 1.00D-06 EigRej= -1.00D+00 NBFU=    92    46
 Initial guess from the checkpoint file:  "/gscratch/scrubbed/gds001/Gau-12543.chk"
 B after Tr=    -0.000000   -0.000000    0.000000
         Rot=    1.000000    0.000000    0.000000    0.000344 Ang=   0.04 deg.
 Initial guess orbital symmetries:
       Occupied  (A') (A') (A') (A') (A') (A') (A") (A') (A') (A")
       Virtual   (A') (A') (A') (A') (A") (A') (A') (A") (A') (A")
                 (A') (A') (A') (A") (A') (A') (A') (A') (A') (A')
                 (A") (A') (A") (A') (A") (A') (A") (A') (A') (A")
                 (A") (A') (A') (A') (A") (A') (A') (A") (A') (A')
                 (A") (A') (A') (A') (A") (A") (A') (A') (A") (A')
                 (A') (A') (A') (A') (A") (A') (A') (A") (A') (A")
                 (A") (A') (A') (A") (A') (A") (A') (A') (A') (A")
                 (A") (A') (A') (A") (A') (A') (A') (A") (A') (A")
                 (A") (A') (A') (A") (A') (A') (A") (A') (A") (A")
                 (A') (A') (A') (A') (A') (A") (A') (A") (A') (A')
                 (A') (A') (A") (A") (A') (A') (A") (A') (A") (A")
                 (A') (A') (A") (A') (A') (A") (A') (A") (A') (A")
                 (A') (A') (A") (A') (A') (A') (A') (A')
 Keep R1 ints in memory in symmetry-blocked form, NReq=69339737.
 Requested convergence on RMS density matrix=1.00D-08 within 128 cycles.
 Requested convergence on MAX density matrix=1.00D-06.
 Requested convergence on             energy=1.00D-06.
 No special actions if energy rises.
 SCF Done:  E(RHF) =  -200.112677438     A.U. after    8 cycles
            NFock=  8  Conv=0.58D-08     -V/T= 2.0000
 ExpMin= 2.53D-02 ExpMax= 1.95D+04 ExpMxC= 6.65D+02 IAcc=3 IRadAn=         5 AccDes= 0.00D+00
 HarFok:  IExCor=  205 AccDes= 0.00D+00 IRadAn=         5 IDoV=-2 UseB2=F ITyADJ=14
 ICtDFT= 12500011 ScaDFX=  1.000000  1.000000  1.000000  1.000000
 Range of M.O.s used for correlation:     3   138
 NBasis=   138 NAE=    10 NBE=    10 NFC=     2 NFV=     0
 NROrb=    136 NOA=     8 NOB=     8 NVA=   128 NVB=   128

 **** Warning!!: The largest alpha MO coefficient is  0.23881500D+02

 Fully direct method using O(ONN) memory.
 JobTyp=1 Pass  1:  I=   3 to  10 NPSUse= 28 ParTrn=T ParDer=T DoDerP=T.
 Spin components of T(2) and E(2):
     alpha-alpha T2 =       0.1391698336D-01 E2=     -0.7241990024D-01
     alpha-beta  T2 =       0.7481384491D-01 E2=     -0.4184757175D+00
     beta-beta   T2 =       0.1391698336D-01 E2=     -0.7241990024D-01
 ANorm=    0.1050070384D+01
 E2 =    -0.5633155180D+00 EUMP2 =    -0.20067599295548D+03
          IDoAtm=1111
          Differentiating once with respect to electric field.
                with respect to dipole field.
          Differentiating once with respect to nuclear coordinates.
 Keep R1 ints in memory in symmetry-blocked form, NReq=69340661.
          There are     1 degrees of freedom in the 1st order CPHF.  IDoFFX=0 NUNeed=     1.
 LinEq1:  Iter=  0 NonCon=     1 RMS=3.92D-03 Max=4.21D-02 NDo=     1
 AX will form     1 AO Fock derivatives at one time.
 LinEq1:  Iter=  1 NonCon=     1 RMS=5.25D-04 Max=5.48D-03 NDo=     1
 LinEq1:  Iter=  2 NonCon=     1 RMS=1.85D-04 Max=1.57D-03 NDo=     1
 LinEq1:  Iter=  3 NonCon=     1 RMS=3.77D-05 Max=2.64D-04 NDo=     1
 LinEq1:  Iter=  4 NonCon=     1 RMS=6.38D-06 Max=4.37D-05 NDo=     1
 LinEq1:  Iter=  5 NonCon=     1 RMS=2.04D-06 Max=1.97D-05 NDo=     1
 LinEq1:  Iter=  6 NonCon=     1 RMS=5.18D-07 Max=4.73D-06 NDo=     1
 LinEq1:  Iter=  7 NonCon=     1 RMS=6.40D-08 Max=5.82D-07 NDo=     1
 LinEq1:  Iter=  8 NonCon=     1 RMS=1.01D-08 Max=6.32D-08 NDo=     1
 LinEq1:  Iter=  9 NonCon=     1 RMS=1.79D-09 Max=1.40D-08 NDo=     1
 LinEq1:  Iter= 10 NonCon=     1 RMS=3.44D-10 Max=2.82D-09 NDo=     1
 LinEq1:  Iter= 11 NonCon=     0 RMS=4.79D-11 Max=4.66D-10 NDo=     1
 Linear equations converged to 1.000D-10 1.000D-09 after    11 iterations.
 End of Minotr F.D. properties file   721 does not exist.
 End of Minotr F.D. properties file   722 does not exist.
 End of Minotr F.D. properties file   788 does not exist.
 Calling FoFJK, ICntrl=  10002127 FMM=F ISym2X=1 I1Cent= 0 IOpClX= 0 NMat=1 NMatS=1 NMatT=0.
 ***** Axes restored to original set *****
 -------------------------------------------------------------------
 Center     Atomic                   Forces (Hartrees/Bohr)
 Number     Number              X              Y              Z
 -------------------------------------------------------------------
      1        9          -0.044059558    0.000000000    0.000540164
      2        1           0.000295797   -0.000000000   -0.000826185
      3        9           0.043866859   -0.000000000    0.000215226
      4        1          -0.000103098    0.000000000    0.000070795
 -------------------------------------------------------------------
 Cartesian Forces:  Max     0.044059558 RMS     0.017950557
 -----------------------------------------------------------------------------------------------
                       Internal Coordinate Forces (Hartree/Bohr or radian)
  Cent   Atom   N1       Length/X         N2         Alpha/Y        N3         Beta/Z          J
 -----------------------------------------------------------------------------------------------
      1  F 
         X        1   0.000000(     1)
      2  H        1   0.000296(     2)      2   0.001433(     6)
      3  F        1   0.043764(     3)      2  -0.001433(     7)      3  -0.000000(    10)     0
         X        4  -0.000000(     4)      1   0.000000(     8)      2  -0.000000(    11)     0
      4  H        4   0.000016(     5)      5   0.000000(     9)      1  -0.000217(    12)     0
 -----------------------------------------------------------------------------------------------
 Internal  Forces:  Max     0.043763761 RMS     0.012647501

 GradGradGradGradGradGradGradGradGradGradGradGradGradGradGradGradGradGrad
 Berny optimization.
 Search for a local minimum.
 Step number   4 out of a maximum of   20
 All quantities printed in internal units (Hartrees-Bohrs-Radians)
 Update second derivatives using D2CorN and points    1    2    3    4
 DE= -4.90D-06 DEPred=-3.02D-06 R= 1.62D+00
 TightC=F SS=  1.41D+00  RLast= 1.38D-02 DXNew= 5.0454D-01 4.1394D-02
 Trust test= 1.62D+00 RLast= 1.38D-02 DXMaxT set to 3.00D-01
 The second derivative matrix:
                          R1        D1        Rah       Rab
           R1           0.63863
           D1           0.00583   0.02001
           Rah          0.00017   0.00270   0.62627
           Rab          0.00731  -0.00270  -0.02469   0.05462
 ITU=  1  1  1  0
     Eigenvalues ---    0.01995   0.62628   0.638691000.00000
 RFO step:  Lambda=-3.05173353D-07 EMin= 1.99455661D-02
 Quartic linear search produced a step of  0.75899.
 Variable       Old X    -DE/DX   Delta X   Delta X   Delta X     New X
                                 (Linear)    (Quad)   (Total)
    R1        1.75285   0.00002   0.00008   0.00004   0.00013   1.75297
    D1        2.04636  -0.00022  -0.01047  -0.00019  -0.01066   2.03570
   Rah        1.73500   0.00030  -0.00004   0.00070   0.00065   1.73566
   Rab        4.25132   0.04376   0.00000   0.00000   0.00000   4.25132
         Item               Value     Threshold  Converged?
 Maximum Force            0.000296     0.000450     YES
 RMS     Force            0.000212     0.000300     YES
 Maximum Displacement     0.010661     0.001800     NO 
 RMS     Displacement     0.005341     0.001200     NO 
 Predicted change in Energy=-1.264443D-06
 GradGradGradGradGradGradGradGradGradGradGradGradGradGradGradGradGradGrad

 ---------------------------------------------------------------------------------------------------
                            Z-MATRIX (ANGSTROMS AND DEGREES)
   CD    Cent   Atom    N1       Length/X        N2       Alpha/Y        N3        Beta/Z          J
 ---------------------------------------------------------------------------------------------------
      1      1  F 
      2         X        1   1.000000(     1)
      3      2  H        1   0.918470(     2)      2   90.000(     6)
      4      3  F        1   2.249700(     3)      2   90.000(     7)      3    0.000(    10)      0
      5         X        4   1.000000(     4)      1   90.000(     8)      2   90.000(    11)      0
      6      4  H        4   0.927633(     5)      5   90.000(     9)      1  116.637(    12)      0
 ---------------------------------------------------------------------------------------------------
                         Z-Matrix orientation:                         
 ---------------------------------------------------------------------
 Center     Atomic      Atomic             Coordinates (Angstroms)
 Number     Number       Type             X           Y           Z
 ---------------------------------------------------------------------
      1          9           0        0.000000    0.000000    0.000000
      2         -1           0        0.000000    0.000000    1.000000
      3          1           0        0.918470    0.000000    0.000000
      4          9           0        2.249700    0.000000    0.000000
      5         -1           0        2.249700   -1.000000    0.000000
      6          1           0        2.665591   -0.000000    0.829179
 ---------------------------------------------------------------------
                    Distance matrix (angstroms):
                    1          2          3          4          5
     1  F    0.000000
     2  X    1.000000   0.000000
     3  H    0.918470   1.357787   0.000000
     4  F    2.249700   2.461940   1.331230   0.000000
     5  X    2.461940   2.657282   1.664985   1.000000   0.000000
     6  H    2.791579   2.671059   1.933901   0.927633   1.364003
                    6
     6  H    0.000000
 Stoichiometry    F2H2
 Framework group  CS[SG(F2H2)]
 Deg. of freedom     5
 Full point group                 CS      NOp   2
 Largest Abelian subgroup         CS      NOp   2
 Largest concise Abelian subgroup C1      NOp   1
                         Standard orientation:                         
 ---------------------------------------------------------------------
 Center     Atomic      Atomic             Coordinates (Angstroms)
 Number     Number       Type             X           Y           Z
 ---------------------------------------------------------------------
      1          9           0        0.041459    1.191568    0.000000
      2          1           0        0.041459    0.273098    0.000000
      3          9           0        0.041459   -1.058132   -0.000000
      4          1           0       -0.787720   -1.474023   -0.000000
 ---------------------------------------------------------------------
 Rotational constants (GHZ):         785.2036829          10.0077214           9.8817744
 Standard basis: Aug-CC-pVTZ (5D, 7F)
 There are   110 symmetry adapted cartesian basis functions of A'  symmetry.
 There are    50 symmetry adapted cartesian basis functions of A"  symmetry.
 There are    92 symmetry adapted basis functions of A'  symmetry.
 There are    46 symmetry adapted basis functions of A"  symmetry.
   138 basis functions,   198 primitive gaussians,   160 cartesian basis functions
    10 alpha electrons       10 beta electrons
       nuclear repulsion energy        34.9296934031 Hartrees.
 NAtoms=    4 NActive=    4 NUniq=    4 SFac= 1.00D+00 NAtFMM=   60 NAOKFM=F Big=F
 Integral buffers will be    131072 words long.
 Raffenetti 1 integral format.
 Two-electron integral symmetry is turned on.
 One-electron integrals computed using PRISM.
 NBasis=   138 RedAO= T EigKep=  1.35D-04  NBF=    92    46
 NBsUse=   138 1.00D-06 EigRej= -1.00D+00 NBFU=    92    46
 Initial guess from the checkpoint file:  "/gscratch/scrubbed/gds001/Gau-12543.chk"
 B after Tr=    -0.000000   -0.000000    0.000000
         Rot=    1.000000    0.000000    0.000000    0.000264 Ang=   0.03 deg.
 Initial guess orbital symmetries:
       Occupied  (A') (A') (A') (A') (A') (A') (A") (A') (A') (A")
       Virtual   (A') (A') (A') (A') (A") (A') (A') (A") (A') (A")
                 (A') (A') (A') (A") (A') (A') (A') (A') (A') (A')
                 (A") (A') (A") (A') (A") (A') (A") (A') (A') (A")
                 (A") (A') (A') (A') (A") (A') (A') (A") (A') (A')
                 (A") (A') (A') (A') (A") (A") (A') (A') (A") (A')
                 (A') (A') (A') (A') (A") (A') (A') (A") (A') (A")
                 (A") (A') (A') (A") (A') (A") (A') (A') (A') (A")
                 (A") (A') (A') (A") (A') (A') (A') (A") (A') (A")
                 (A") (A') (A') (A") (A') (A') (A") (A') (A") (A")
                 (A') (A') (A') (A') (A') (A") (A') (A") (A') (A')
                 (A') (A') (A") (A") (A') (A') (A") (A') (A") (A")
                 (A') (A') (A") (A') (A') (A") (A') (A") (A') (A")
                 (A') (A') (A") (A') (A') (A') (A') (A')
 Keep R1 ints in memory in symmetry-blocked form, NReq=69339737.
 Requested convergence on RMS density matrix=1.00D-08 within 128 cycles.
 Requested convergence on MAX density matrix=1.00D-06.
 Requested convergence on             energy=1.00D-06.
 No special actions if energy rises.
 SCF Done:  E(RHF) =  -200.112642265     A.U. after    8 cycles
            NFock=  8  Conv=0.47D-08     -V/T= 2.0000
 ExpMin= 2.53D-02 ExpMax= 1.95D+04 ExpMxC= 6.65D+02 IAcc=3 IRadAn=         5 AccDes= 0.00D+00
 HarFok:  IExCor=  205 AccDes= 0.00D+00 IRadAn=         5 IDoV=-2 UseB2=F ITyADJ=14
 ICtDFT= 12500011 ScaDFX=  1.000000  1.000000  1.000000  1.000000
 Range of M.O.s used for correlation:     3   138
 NBasis=   138 NAE=    10 NBE=    10 NFC=     2 NFV=     0
 NROrb=    136 NOA=     8 NOB=     8 NVA=   128 NVB=   128

 **** Warning!!: The largest alpha MO coefficient is  0.23717747D+02

 Fully direct method using O(ONN) memory.
 JobTyp=1 Pass  1:  I=   3 to  10 NPSUse= 28 ParTrn=T ParDer=T DoDerP=T.
 Spin components of T(2) and E(2):
     alpha-alpha T2 =       0.1391944695D-01 E2=     -0.7242554705D-01
     alpha-beta  T2 =       0.7482653966D-01 E2=     -0.4185008930D+00
     beta-beta   T2 =       0.1391944695D-01 E2=     -0.7242554705D-01
 ANorm=    0.1050078775D+01
 E2 =    -0.5633519871D+00 EUMP2 =    -0.20067599425190D+03
          IDoAtm=1111
          Differentiating once with respect to electric field.
                with respect to dipole field.
          Differentiating once with respect to nuclear coordinates.
 Keep R1 ints in memory in symmetry-blocked form, NReq=69340661.
          There are     1 degrees of freedom in the 1st order CPHF.  IDoFFX=0 NUNeed=     1.
 LinEq1:  Iter=  0 NonCon=     1 RMS=3.92D-03 Max=4.21D-02 NDo=     1
 AX will form     1 AO Fock derivatives at one time.
 LinEq1:  Iter=  1 NonCon=     1 RMS=5.26D-04 Max=5.50D-03 NDo=     1
 LinEq1:  Iter=  2 NonCon=     1 RMS=1.85D-04 Max=1.57D-03 NDo=     1
 LinEq1:  Iter=  3 NonCon=     1 RMS=3.78D-05 Max=2.65D-04 NDo=     1
 LinEq1:  Iter=  4 NonCon=     1 RMS=6.42D-06 Max=4.39D-05 NDo=     1
 LinEq1:  Iter=  5 NonCon=     1 RMS=2.05D-06 Max=1.99D-05 NDo=     1
 LinEq1:  Iter=  6 NonCon=     1 RMS=5.21D-07 Max=4.76D-06 NDo=     1
 LinEq1:  Iter=  7 NonCon=     1 RMS=6.44D-08 Max=5.89D-07 NDo=     1
 LinEq1:  Iter=  8 NonCon=     1 RMS=1.01D-08 Max=6.28D-08 NDo=     1
 LinEq1:  Iter=  9 NonCon=     1 RMS=1.80D-09 Max=1.40D-08 NDo=     1
 LinEq1:  Iter= 10 NonCon=     1 RMS=3.45D-10 Max=2.79D-09 NDo=     1
 LinEq1:  Iter= 11 NonCon=     0 RMS=4.80D-11 Max=4.71D-10 NDo=     1
 Linear equations converged to 1.000D-10 1.000D-09 after    11 iterations.
 End of Minotr F.D. properties file   721 does not exist.
 End of Minotr F.D. properties file   722 does not exist.
 End of Minotr F.D. properties file   788 does not exist.
 Calling FoFJK, ICntrl=  10002127 FMM=F ISym2X=1 I1Cent= 0 IOpClX= 0 NMat=1 NMatS=1 NMatT=0.
 ***** Axes restored to original set *****
 -------------------------------------------------------------------
 Center     Atomic                   Forces (Hartrees/Bohr)
 Number     Number              X              Y              Z
 -------------------------------------------------------------------
      1        9          -0.043797083    0.000000000    0.000600305
      2        1           0.000011088   -0.000000000   -0.001012264
      3        9           0.043783916   -0.000000000    0.000400716
      4        1           0.000002079    0.000000000    0.000011243
 -------------------------------------------------------------------
 Cartesian Forces:  Max     0.043797083 RMS     0.017880999
 -----------------------------------------------------------------------------------------------
                       Internal Coordinate Forces (Hartree/Bohr or radian)
  Cent   Atom   N1       Length/X         N2         Alpha/Y        N3         Beta/Z          J
 -----------------------------------------------------------------------------------------------
      1  F 
         X        1   0.000000(     1)
      2  H        1   0.000011(     2)      2   0.001757(     6)
      3  F        1   0.043786(     3)      2  -0.001757(     7)      3  -0.000000(    10)     0
         X        4  -0.000000(     4)      1   0.000000(     8)      2  -0.000000(    11)     0
      4  H        4   0.000011(     5)      5   0.000000(     9)      1  -0.000006(    12)     0
 -----------------------------------------------------------------------------------------------
 Internal  Forces:  Max     0.043785995 RMS     0.012660264

 GradGradGradGradGradGradGradGradGradGradGradGradGradGradGradGradGradGrad
 Berny optimization.
 Search for a local minimum.
 Step number   5 out of a maximum of   20
 All quantities printed in internal units (Hartrees-Bohrs-Radians)
 Update second derivatives using D2CorN and points    1    2    3    4    5

 DE= -1.30D-06 DEPred=-1.26D-06 R= 1.03D+00
 TightC=F SS=  1.41D+00  RLast= 1.07D-02 DXNew= 5.0454D-01 3.2045D-02
 Trust test= 1.03D+00 RLast= 1.07D-02 DXMaxT set to 3.00D-01
 The second derivative matrix:
                          R1        D1        Rah       Rab
           R1           0.63853
           D1           0.00671   0.02043
           Rah          0.00082   0.00962   0.62173
           Rab          0.00756  -0.00034  -0.02570   0.05462
 ITU=  1  1  1  1  0
     Eigenvalues ---    0.02021   0.62184   0.638661000.00000
 RFO step:  Lambda= 0.00000000D+00 EMin= 2.02077626D-02
 Quartic linear search produced a step of  0.02745.
 Variable       Old X    -DE/DX   Delta X   Delta X   Delta X     New X
                                 (Linear)    (Quad)   (Total)
    R1        1.75297   0.00001   0.00000   0.00002   0.00002   1.75299
    D1        2.03570  -0.00001  -0.00029   0.00001  -0.00028   2.03541
   Rah        1.73566   0.00001   0.00002   0.00001   0.00002   1.73568
   Rab        4.25132   0.04379   0.00000   0.00000   0.00000   4.25132
         Item               Value     Threshold  Converged?
 Maximum Force            0.000011     0.000450     YES
 RMS     Force            0.000010     0.000300     YES
 Maximum Displacement     0.000285     0.001800     YES
 RMS     Displacement     0.000143     0.001200     YES
 Predicted change in Energy=-1.043462D-09
 Optimization completed.
    -- Stationary point found.
                       ----------------------------
                       !   Optimized Parameters   !
                       ! (Angstroms and Degrees)  !
 ----------------------                            ----------------------
 !      Name          Value   Derivative information (Atomic Units)     !
 ------------------------------------------------------------------------
 !       R1          0.9276   -DE/DX =    0.0                           !
 !       D1        116.6369   -DE/DX =    0.0                           !
 !       Rah         0.9185   -DE/DX =    0.0                           !
 !       Rab         2.2497   -DE/DX =    0.0438                        !
 ------------------------------------------------------------------------
 GradGradGradGradGradGradGradGradGradGradGradGradGradGradGradGradGradGrad

 ---------------------------------------------------------------------------------------------------
                            Z-MATRIX (ANGSTROMS AND DEGREES)
   CD    Cent   Atom    N1       Length/X        N2       Alpha/Y        N3        Beta/Z          J
 ---------------------------------------------------------------------------------------------------
      1      1  F 
      2         X        1   1.000000(     1)
      3      2  H        1   0.918470(     2)      2   90.000(     6)
      4      3  F        1   2.249700(     3)      2   90.000(     7)      3    0.000(    10)      0
      5         X        4   1.000000(     4)      1   90.000(     8)      2   90.000(    11)      0
      6      4  H        4   0.927633(     5)      5   90.000(     9)      1  116.637(    12)      0
 ---------------------------------------------------------------------------------------------------
                         Z-Matrix orientation:                         
 ---------------------------------------------------------------------
 Center     Atomic      Atomic             Coordinates (Angstroms)
 Number     Number       Type             X           Y           Z
 ---------------------------------------------------------------------
      1          9           0        0.000000    0.000000    0.000000
      2         -1           0        0.000000    0.000000    1.000000
      3          1           0        0.918470    0.000000    0.000000
      4          9           0        2.249700    0.000000    0.000000
      5         -1           0        2.249700   -1.000000    0.000000
      6          1           0        2.665591   -0.000000    0.829179
 ---------------------------------------------------------------------
                    Distance matrix (angstroms):
                    1          2          3          4          5
     1  F    0.000000
     2  X    1.000000   0.000000
     3  H    0.918470   1.357787   0.000000
     4  F    2.249700   2.461940   1.331230   0.000000
     5  X    2.461940   2.657282   1.664985   1.000000   0.000000
     6  H    2.791579   2.671059   1.933901   0.927633   1.364003
                    6
     6  H    0.000000
 Stoichiometry    F2H2
 Framework group  CS[SG(F2H2)]
 Deg. of freedom     5
 Full point group                 CS      NOp   2
 Largest Abelian subgroup         CS      NOp   2
 Largest concise Abelian subgroup C1      NOp   1
                         Standard orientation:                         
 ---------------------------------------------------------------------
 Center     Atomic      Atomic             Coordinates (Angstroms)
 Number     Number       Type             X           Y           Z
 ---------------------------------------------------------------------
      1          9           0        0.041459    1.191568    0.000000
      2          1           0        0.041459    0.273098    0.000000
      3          9           0        0.041459   -1.058132   -0.000000
      4          1           0       -0.787720   -1.474023   -0.000000
 ---------------------------------------------------------------------
 Rotational constants (GHZ):         785.2036829          10.0077214           9.8817744

 **********************************************************************

            Population analysis using the SCF density.

 **********************************************************************

 Orbital symmetries:
       Occupied  (A') (A') (A') (A') (A') (A') (A") (A') (A') (A")
       Virtual   (A') (A') (A') (A') (A") (A') (A') (A") (A') (A")
                 (A') (A') (A') (A") (A') (A') (A') (A') (A') (A')
                 (A") (A') (A") (A') (A") (A') (A") (A') (A') (A")
                 (A") (A') (A') (A') (A") (A') (A') (A") (A') (A')
                 (A") (A') (A') (A') (A") (A") (A') (A') (A") (A')
                 (A') (A') (A') (A') (A") (A') (A') (A") (A') (A")
                 (A") (A') (A') (A") (A') (A") (A') (A') (A') (A")
                 (A") (A') (A') (A") (A') (A') (A') (A") (A') (A")
                 (A") (A') (A') (A") (A') (A') (A") (A') (A") (A")
                 (A') (A') (A') (A') (A') (A") (A') (A") (A') (A')
                 (A') (A') (A") (A") (A') (A') (A") (A') (A") (A")
                 (A') (A') (A") (A') (A') (A") (A') (A") (A') (A")
                 (A') (A') (A") (A') (A') (A') (A') (A')
 The electronic state is 1-A'.
 Alpha  occ. eigenvalues --  -26.37194 -26.23615  -1.68856  -1.55171  -0.87026
 Alpha  occ. eigenvalues --   -0.78475  -0.72926  -0.65988  -0.59858  -0.59797
 Alpha virt. eigenvalues --    0.01472   0.06594   0.12419   0.14598   0.15964
 Alpha virt. eigenvalues --    0.18482   0.21088   0.24351   0.25241   0.27293
 Alpha virt. eigenvalues --    0.28687   0.30692   0.35341   0.39099   0.39635
 Alpha virt. eigenvalues --    0.47010   0.50468   0.65790   0.68253   0.70396
 Alpha virt. eigenvalues --    0.74787   0.76469   0.79653   0.83719   0.86035
 Alpha virt. eigenvalues --    0.89341   0.92126   0.92802   0.95705   1.01747
 Alpha virt. eigenvalues --    1.04042   1.06504   1.09811   1.12597   1.15530
 Alpha virt. eigenvalues --    1.16988   1.20297   1.25522   1.26048   1.30553
 Alpha virt. eigenvalues --    1.35230   1.39831   1.42147   1.63088   1.66835
 Alpha virt. eigenvalues --    1.71139   1.79483   1.85983   1.86906   1.92035
 Alpha virt. eigenvalues --    2.06468   2.22717   2.57487   2.74136   2.78757
 Alpha virt. eigenvalues --    2.79461   2.80678   2.82179   2.86101   2.86604
 Alpha virt. eigenvalues --    2.97085   2.97119   3.00853   3.04291   3.05085
 Alpha virt. eigenvalues --    3.11122   3.16580   3.18185   3.25397   3.32435
 Alpha virt. eigenvalues --    3.36604   3.40817   3.50897   3.53544   3.60359
 Alpha virt. eigenvalues --    3.85679   3.94302   3.96495   4.07583   4.10700
 Alpha virt. eigenvalues --    4.25820   4.26466   4.37250   4.46180   4.49548
 Alpha virt. eigenvalues --    4.59346   4.69586   4.76176   4.93564   5.05817
 Alpha virt. eigenvalues --    5.08427   5.14917   5.19401   5.62581   5.70446
 Alpha virt. eigenvalues --    6.03992   6.12831   6.45978   6.55614   7.00957
 Alpha virt. eigenvalues --    7.61155   7.82389   8.85341   8.87608   8.87615
 Alpha virt. eigenvalues --    8.91658   9.04481   9.06440   9.12861   9.18184
 Alpha virt. eigenvalues --    9.24995   9.32193   9.38223   9.39058   9.40795
 Alpha virt. eigenvalues --    9.42128   9.45136   9.49363   9.62127   9.63880
 Alpha virt. eigenvalues --    9.69570   9.75589   9.81040   9.94414  10.12878
 Alpha virt. eigenvalues --   10.52815  15.99114  16.60682
          Condensed to atoms (all electrons):
               1          2          3          4
     1  F    9.415595   0.141945  -0.116464   0.004230
     2  H    0.141945   0.561124  -0.099621  -0.002135
     3  F   -0.116464  -0.099621   9.415253   0.182877
     4  H    0.004230  -0.002135   0.182877   0.386361
 Mulliken charges:
               1
     1  F   -0.445306
     2  H    0.398686
     3  F   -0.382046
     4  H    0.428666
 Sum of Mulliken charges =  -0.00000
[...]
 Integral buffers will be    131072 words long.
 Raffenetti 1 integral format.
 Two-electron integral symmetry is turned on.
 One-electron integrals computed using PRISM.
 NBasis=   138 RedAO= T EigKep=  3.66D-04  NBF=    92    46
 NBsUse=   138 1.00D-06 EigRej= -1.00D+00 NBFU=    92    46
 Initial guess from the checkpoint file:  "/gscratch/scrubbed/gds001/Gau-7667.chk"
 B after Tr=     0.000000   -0.000000    0.000000
         Rot=    1.000000    0.000000   -0.000000   -0.000006 Ang=  -0.00 deg.
 Initial guess orbital symmetries:
       Occupied  (A') (A') (A') (A') (A') (A') (A') (A") (A') (A")
       Virtual   (A') (A') (A') (A') (A') (A") (A') (A") (A') (A')
                 (A') (A") (A') (A") (A') (A') (A') (A') (A') (A')
                 (A') (A") (A') (A") (A') (A") (A') (A") (A') (A')
                 (A') (A") (A') (A") (A') (A') (A') (A") (A') (A")
                 (A') (A") (A') (A") (A') (A') (A') (A") (A') (A")
                 (A') (A') (A') (A') (A') (A') (A') (A") (A') (A")
                 (A') (A") (A') (A") (A') (A") (A') (A") (A') (A")
                 (A') (A') (A") (A') (A') (A") (A') (A") (A') (A')
                 (A') (A") (A') (A") (A') (A") (A') (A") (A') (A")
                 (A') (A") (A') (A') (A') (A') (A') (A") (A') (A")
                 (A') (A') (A') (A") (A") (A') (A') (A") (A') (A")
                 (A') (A") (A') (A") (A') (A') (A') (A") (A') (A")
                 (A') (A") (A') (A") (A') (A') (A') (A')
 Keep R1 ints in memory in symmetry-blocked form, NReq=69339737.
 Requested convergence on RMS density matrix=1.00D-08 within 128 cycles.
 Requested convergence on MAX density matrix=1.00D-06.
 Requested convergence on             energy=1.00D-06.
 No special actions if energy rises.
 SCF Done:  E(RHF) =  -200.121655493     A.U. after    7 cycles
            NFock=  7  Conv=0.79D-08     -V/T= 2.0010
 ExpMin= 2.53D-02 ExpMax= 1.95D+04 ExpMxC= 6.65D+02 IAcc=3 IRadAn=         5 AccDes= 0.00D+00
 HarFok:  IExCor=  205 AccDes= 0.00D+00 IRadAn=         5 IDoV=-2 UseB2=F ITyADJ=14
 ICtDFT= 12500011 ScaDFX=  1.000000  1.000000  1.000000  1.000000
 Range of M.O.s used for correlation:     3   138
 NBasis=   138 NAE=    10 NBE=    10 NFC=     2 NFV=     0
 NROrb=    136 NOA=     8 NOB=     8 NVA=   128 NVB=   128

 **** Warning!!: The largest alpha MO coefficient is  0.18549264D+02

 Fully direct method using O(ONN) memory.
 JobTyp=1 Pass  1:  I=   3 to  10 NPSUse= 28 ParTrn=T ParDer=T DoDerP=T.
 Spin components of T(2) and E(2):
     alpha-alpha T2 =       0.1391384811D-01 E2=     -0.7128580354D-01
     alpha-beta  T2 =       0.7641837297D-01 E2=     -0.4175633492D+00
     beta-beta   T2 =       0.1391384811D-01 E2=     -0.7128580354D-01
 ANorm=    0.1050831133D+01
 E2 =    -0.5601349563D+00 EUMP2 =    -0.20068179044958D+03
          IDoAtm=1111
          Differentiating once with respect to electric field.
                with respect to dipole field.
          Differentiating once with respect to nuclear coordinates.
 Keep R1 ints in memory in symmetry-blocked form, NReq=69340661.
          There are     1 degrees of freedom in the 1st order CPHF.  IDoFFX=0 NUNeed=     1.
 LinEq1:  Iter=  0 NonCon=     1 RMS=3.92D-03 Max=5.07D-02 NDo=     1
 AX will form     1 AO Fock derivatives at one time.
 LinEq1:  Iter=  1 NonCon=     1 RMS=6.14D-04 Max=8.02D-03 NDo=     1
 LinEq1:  Iter=  2 NonCon=     1 RMS=2.20D-04 Max=2.07D-03 NDo=     1
 LinEq1:  Iter=  3 NonCon=     1 RMS=4.63D-05 Max=4.59D-04 NDo=     1
 LinEq1:  Iter=  4 NonCon=     1 RMS=6.30D-06 Max=5.08D-05 NDo=     1
 LinEq1:  Iter=  5 NonCon=     1 RMS=6.59D-07 Max=6.70D-06 NDo=     1
 LinEq1:  Iter=  6 NonCon=     1 RMS=5.40D-08 Max=3.84D-07 NDo=     1
 LinEq1:  Iter=  7 NonCon=     1 RMS=5.06D-09 Max=5.38D-08 NDo=     1
 LinEq1:  Iter=  8 NonCon=     1 RMS=1.91D-09 Max=2.13D-08 NDo=     1
 LinEq1:  Iter=  9 NonCon=     1 RMS=2.74D-10 Max=2.38D-09 NDo=     1
 LinEq1:  Iter= 10 NonCon=     0 RMS=2.22D-11 Max=2.38D-10 NDo=     1
 Linear equations converged to 1.000D-10 1.000D-09 after    10 iterations.
 End of Minotr F.D. properties file   721 does not exist.
 End of Minotr F.D. properties file   722 does not exist.
 End of Minotr F.D. properties file   788 does not exist.
 Calling FoFJK, ICntrl=  10002127 FMM=F ISym2X=1 I1Cent= 0 IOpClX= 0 NMat=1 NMatS=1 NMatT=0.
 ***** Axes restored to original set *****
 -------------------------------------------------------------------
 Center     Atomic                   Forces (Hartrees/Bohr)
 Number     Number              X              Y              Z
 -------------------------------------------------------------------
      1        9           0.000304588   -0.000000000    0.000004066
      2        1          -0.000303859    0.000000000   -0.000004625
      3        9           0.000066746    0.000000000    0.000141049
      4        1          -0.000067474   -0.000000000   -0.000140490
 -------------------------------------------------------------------
 Cartesian Forces:  Max     0.000304588 RMS     0.000139577
 -----------------------------------------------------------------------------------------------
                       Internal Coordinate Forces (Hartree/Bohr or radian)
  Cent   Atom   N1       Length/X         N2         Alpha/Y        N3         Beta/Z          J
 -----------------------------------------------------------------------------------------------
      1  F 
         X        1   0.000000(     1)
      2  H        1  -0.000304(     2)      2   0.000008(     6)
      3  F        1  -0.000001(     3)      2  -0.000008(     7)      3   0.000000(    10)     0
         X        4   0.000000(     4)      1   0.000000(     8)      2   0.000000(    11)     0
      4  H        4  -0.000156(     5)      5  -0.000000(     9)      1   0.000014(    12)     0
 -----------------------------------------------------------------------------------------------
 Internal  Forces:  Max     0.000303859 RMS     0.000098692

 GradGradGradGradGradGradGradGradGradGradGradGradGradGradGradGradGradGrad
 Berny optimization.
 Search for a local minimum.
 Step number   2 out of a maximum of   20
 All quantities printed in internal units (Hartrees-Bohrs-Radians)
 Update second derivatives using D2CorN and points    1    2
 DE= -4.79D-05 DEPred=-4.56D-05 R= 1.05D+00
 TightC=F SS=  1.41D+00  RLast= 1.20D-02 DXNew= 5.0454D-01 3.6050D-02
 Trust test= 1.05D+00 RLast= 1.20D-02 DXMaxT set to 3.00D-01
 The second derivative matrix:
                          R1        D1        Rah       Rab
           R1           0.63216
           D1           0.00030   0.15999
           Rah         -0.01138   0.00061   0.60760
           Rab          0.00000  -0.00000   0.00000   0.00100
 ITU=  1  0
     Eigenvalues ---    0.15999   0.60314   0.636621000.00000
 RFO step:  Lambda= 0.00000000D+00 EMin= 1.59990573D-01
 Quartic linear search produced a step of  0.04620.
 Variable       Old X    -DE/DX   Delta X   Delta X   Delta X     New X
                                 (Linear)    (Quad)   (Total)
    R1        1.74228  -0.00016  -0.00025  -0.00000  -0.00025   1.74203
    D1        2.06964   0.00001   0.00000   0.00009   0.00009   2.06973
   Rah        1.74252  -0.00030  -0.00050   0.00000  -0.00050   1.74203
   Rab       39.21125  -0.00000   0.00000   0.00000   0.00000  39.21125
         Item               Value     Threshold  Converged?
 Maximum Force            0.000304     0.000450     YES
 RMS     Force            0.000197     0.000300     YES
 Maximum Displacement     0.000495     0.001800     YES
 RMS     Displacement     0.000281     0.001200     YES
 Predicted change in Energy=-9.717526D-08
 Optimization completed.
    -- Stationary point found.
                       ----------------------------
                       !   Optimized Parameters   !
                       ! (Angstroms and Degrees)  !
 ----------------------                            ----------------------
 !      Name          Value   Derivative information (Atomic Units)     !
 ------------------------------------------------------------------------
 !       R1          0.922    -DE/DX =   -0.0002                        !
 !       D1        118.5817   -DE/DX =    0.0                           !
 !       Rah         0.9221   -DE/DX =   -0.0003                        !
 !       Rab        20.7497   -DE/DX =    0.0                           !
 ------------------------------------------------------------------------
 GradGradGradGradGradGradGradGradGradGradGradGradGradGradGradGradGradGrad

 ---------------------------------------------------------------------------------------------------
                            Z-MATRIX (ANGSTROMS AND DEGREES)
   CD    Cent   Atom    N1       Length/X        N2       Alpha/Y        N3        Beta/Z          J
 ---------------------------------------------------------------------------------------------------
      1      1  F 
      2         X        1   1.000000(     1)
      3      2  H        1   0.922103(     2)      2   90.000(     6)
      4      3  F        1  20.749700(     3)      2   90.000(     7)      3    0.000(    10)      0
      5         X        4   1.000000(     4)      1   90.000(     8)      2   90.000(    11)      0
      6      4  H        4   0.921975(     5)      5   90.000(     9)      1  118.582(    12)      0
 ---------------------------------------------------------------------------------------------------
                         Z-Matrix orientation:                         
 ---------------------------------------------------------------------
 Center     Atomic      Atomic             Coordinates (Angstroms)
 Number     Number       Type             X           Y           Z
 ---------------------------------------------------------------------
      1          9           0        0.000000    0.000000    0.000000
      2         -1           0        0.000000    0.000000    1.000000
      3          1           0        0.922103    0.000000    0.000000
      4          9           0       20.749700    0.000000    0.000000
      5         -1           0       20.749700   -1.000000    0.000000
      6          1           0       21.190784   -0.000000    0.809619
 ---------------------------------------------------------------------
                    Distance matrix (angstroms):
                    1          2          3          4          5
     1  F    0.000000
     2  X    1.000000   0.000000
     3  H    0.922103   1.360248   0.000000
     4  F   20.749700  20.773783  19.827597   0.000000
     5  X   20.773783  20.797838  19.852798   1.000000   0.000000
     6  H   21.206244  21.191639  20.284844   0.921975   1.360161
                    6
     6  H    0.000000
 Stoichiometry    F2H2
 Framework group  CS[SG(F2H2)]
 Deg. of freedom     5
 Full point group                 CS      NOp   2
 Largest Abelian subgroup         CS      NOp   2
 Largest concise Abelian subgroup C1      NOp   1
                         Standard orientation:                         
 ---------------------------------------------------------------------
 Center     Atomic      Atomic             Coordinates (Angstroms)
 Number     Number       Type             X           Y           Z
 ---------------------------------------------------------------------
      1          9           0        0.040481   10.443009    0.000000
      2          1           0        0.040481    9.520906    0.000000
      3          9           0        0.040481  -10.306691    0.000000
      4          1           0       -0.769138  -10.747774    0.000000
 ---------------------------------------------------------------------
 Rotational constants (GHZ):         807.3619974           0.1175900           0.1175729

 **********************************************************************

            Population analysis using the SCF density.

 **********************************************************************

 Orbital symmetries:
       Occupied  (A') (A') (A') (A') (A') (A') (A') (A") (A') (A")
       Virtual   (A') (A') (A') (A') (A') (A") (A') (A") (A') (A')
                 (A') (A") (A') (A") (A') (A') (A') (A') (A') (A')
                 (A') (A") (A') (A") (A') (A") (A') (A") (A') (A')
                 (A') (A") (A') (A") (A') (A') (A') (A") (A') (A")
                 (A') (A") (A') (A") (A') (A') (A') (A") (A') (A")
                 (A') (A') (A') (A') (A') (A') (A') (A") (A') (A")
                 (A') (A") (A') (A") (A') (A") (A') (A") (A') (A")
                 (A') (A") (A') (A') (A') (A") (A') (A") (A') (A')
                 (A') (A") (A') (A") (A') (A") (A') (A") (A') (A")
                 (A') (A") (A') (A') (A') (A') (A') (A") (A') (A")
                 (A') (A') (A') (A") (A") (A') (A') (A") (A') (A")
                 (A') (A") (A') (A") (A') (A') (A') (A") (A') (A")
                 (A') (A") (A') (A") (A') (A') (A') (A')
 The electronic state is 1-A'.
 Alpha  occ. eigenvalues --  -26.30005 -26.29928  -1.60158  -1.60077  -0.76725
 Alpha  occ. eigenvalues --   -0.76643  -0.65056  -0.65056  -0.64978  -0.64978
 Alpha virt. eigenvalues --    0.02994   0.03070   0.13816   0.13893   0.20082
 Alpha virt. eigenvalues --    0.20083   0.20159   0.20159   0.20721   0.20797
 Alpha virt. eigenvalues --    0.28483   0.28483   0.28559   0.28559   0.31016
 Alpha virt. eigenvalues --    0.31094   0.42609   0.42684   0.70840   0.70911
 Alpha virt. eigenvalues --    0.75930   0.75930   0.76007   0.76007   0.82662
 Alpha virt. eigenvalues --    0.82663   0.82742   0.82742   0.94801   0.94876
 Alpha virt. eigenvalues --    1.04084   1.04085   1.04159   1.04159   1.06978
 Alpha virt. eigenvalues --    1.07059   1.08466   1.08466   1.08541   1.08541
 Alpha virt. eigenvalues --    1.14447   1.14448   1.14523   1.14523   1.14887
 Alpha virt. eigenvalues --    1.14966   1.66632   1.66632   1.66706   1.66706
 Alpha virt. eigenvalues --    1.97906   1.97965   2.38819   2.38888   2.73739
 Alpha virt. eigenvalues --    2.73848   2.80781   2.80781   2.80859   2.80859
 Alpha virt. eigenvalues --    2.90254   2.90254   2.90326   2.90326   2.93404
 Alpha virt. eigenvalues --    2.93404   2.93482   2.93482   3.15780   3.15780
 Alpha virt. eigenvalues --    3.15853   3.15853   3.15930   3.15999   3.62258
 Alpha virt. eigenvalues --    3.62258   3.62329   3.62329   4.08415   4.08471
 Alpha virt. eigenvalues --    4.15997   4.15997   4.16059   4.16059   4.30092
 Alpha virt. eigenvalues --    4.30092   4.30163   4.30163   4.76723   4.76723
 Alpha virt. eigenvalues --    4.76798   4.76798   5.05296   5.05324   5.64543
 Alpha virt. eigenvalues --    5.64584   6.06134   6.06134   6.06161   6.06161
 Alpha virt. eigenvalues --    7.53831   7.53908   8.82939   8.82939   8.83017
 Alpha virt. eigenvalues --    8.83017   8.91843   8.91843   8.91920   8.91920
 Alpha virt. eigenvalues --    9.23426   9.23426   9.23492   9.23492   9.34300
 Alpha virt. eigenvalues --    9.34379   9.35817   9.35817   9.35893   9.35893
 Alpha virt. eigenvalues --    9.54826   9.54826   9.54903   9.54903   9.87434
 Alpha virt. eigenvalues --    9.87485  14.56162  14.56272
          Condensed to atoms (all electrons):
               1          2          3          4
     1  F    9.203220   0.174950   0.000000  -0.000000
     2  H    0.174950   0.446880   0.000000  -0.000000
     3  F    0.000000   0.000000   9.203149   0.174943
     4  H   -0.000000  -0.000000   0.174943   0.446964
 Mulliken charges:
               1
     1  F   -0.378170
     2  H    0.378170
     3  F   -0.378093
     4  H    0.378093
 Sum of Mulliken charges =  -0.00000
 Mulliken charges with hydrogens summed into heavy atoms:
               1
     1  F   -0.000000
     3  F   -0.000000
 Electronic spatial extent (au):  <R**2>=           7695.2219
 Charge=              0.0000 electrons
 Dipole moment (field-independent basis, Debye):
    X=             -1.6992    Y=             -2.8616    Z=             -0.0000  Tot=              3.3281
 Quadrupole moment (field-independent basis, Debye-Ang):
   XX=             -9.5868   YY=            -29.6238   ZZ=            -11.4043
   XY=             18.4650   XZ=              0.0000   YZ=             -0.0000
 Traceless Quadrupole moment (field-independent basis, Debye-Ang):
   XX=              7.2848   YY=            -12.7522   ZZ=              5.4674
   XY=             18.4650   XZ=              0.0000   YZ=             -0.0000
 Octapole moment (field-independent basis, Debye-Ang**2):
  XXX=             -1.6382  YYY=           -869.9607  ZZZ=             -0.0000  XYY=           -203.7664
  XXY=            -19.6752  XXZ=             -0.0000  XZZ=             -0.1244  YZZ=             -0.2110
  YYZ=             -0.0000  XYZ=             -0.0000
 Hexadecapole moment (field-independent basis, Debye-Ang**3):
 XXXX=             -7.2753 YYYY=         -10161.2763 ZZZZ=             -7.5760 XXXY=              2.9885
 XXXZ=              0.0000 YYYX=           2168.1416 YYYZ=             -0.0000 ZZZX=              0.0000
 ZZZY=             -0.0000 XXYY=          -1017.8399 XXZZ=             -2.6626 YYZZ=          -1226.1028
 XXYZ=             -0.0000 YYXZ=              0.0000 ZZXY=             -3.5634
 N-N= 1.288717527946D+01 E-N=-5.060674660507D+02  KE= 1.999218716593D+02
 Symmetry A'   KE= 1.873934326146D+02
 Symmetry A"   KE= 1.252843904472D+01
 Breneman (CHELPG) radii used.
 Generate Potential Derived Charges using the Breneman model, NDens= 1.
 Grid spacing= 0.300 Box extension= 2.800
 NStep X,Y,Z=   23     91     20   Total possible points=       41860
 Number of Points to Fit=    6654

 **********************************************************************

            Electrostatic Properties Using The SCF Density

 **********************************************************************

       Atomic Center    1 is at   0.040481 10.443009  0.000000
       Atomic Center    2 is at   0.040481  9.520906  0.000000
       Atomic Center    3 is at   0.040481-10.306691  0.000000
       Atomic Center    4 is at  -0.769138-10.747774  0.000000
    6654 points will be used for fitting atomic charges
 Fitting point charges to electrostatic potential
 Charges from ESP fit, RMS=   0.00269 RRMS=   0.12470:
 ESP charges:
               1
     1  F   -0.441834
     2  H    0.441829
     3  F   -0.441802
     4  H    0.441807
 Sum of ESP charges =   0.00000
 ESP charges with hydrogens summed into heavy atoms:
               1
     1  F   -0.000005
     3  F    0.000005
 Charge=   0.00000 Dipole=    -1.7181    -2.8934     0.0000 Tot=     3.3651
 -----------------------------------------------------------------

              Electrostatic Properties (Atomic Units)

 -----------------------------------------------------------------
    Center     Electric         -------- Electric Field --------
               Potential          X             Y             Z
 -----------------------------------------------------------------
    1 Atom    -26.581654
    2 Atom     -0.915495
    3 Atom    -26.580886
    4 Atom     -0.914756
 -----------------------------------------------------------------
 1\1\GINC-N2096\POpt\RMP2-FC\Aug-CC-pVTZ\F2H2\GDS001\09-Mar-2024\1\\# m
 p2/aug-cc-pVTZ Pop=ChelpG opt=z-matrix\\Title: Rab = 20.7497 Optimizat
 ions\\0,1\F\X,1,1.\H,1,Rah,2,90.\F,1,Rab,2,90.,3,0.,0\X,4,1.,1,90.,2,9
 0.,0\H,4,R1,5,90.,1,D1,0\\R1=0.92197524\D1=118.58170468\Rah=0.92210314
 \Rab=20.7497\\Version=ES64L-G16RevA.03\State=1-A'\HF=-200.1216555\MP2=
 -200.6817904\RMSD=7.913e-09\RMSF=1.396e-04\Dipole=1.0532368,0.,0.62538
 53\PG=CS [SG(F2H2)]\\@



 WE LOSE BECAUSE WE WIN

 GAMBLERS,

 RECOLLECTING WHICH,

 TOSS THEIR DICE AGAIN....


                          EMILY DICKINSON  BOLTS OF MELODY NO. 533
 Job cpu time:       0 days  0 hours  4 minutes 22.2 seconds.
 Elapsed time:       0 days  0 hours  0 minutes 11.0 seconds.
 File lengths (MBytes):  RWF=     72 Int=      0 D2E=      0 Chk=      8 Scr=      8
 Normal termination of Gaussian 16 at Sat Mar  9 11:12:12 2024.
