 Entering Gaussian System, Link 0=g16
 Input=hf_hf_linear_mp2_avtz_opt_freq.gjf
 Output=hf_hf_linear_mp2_avtz_opt_freq.log
 Initial command:
 /sw/contrib/gaussian/g16/A03/g16/l1.exe "/gscratch/scrubbed/gds001/Gau-30303.inp" -scrdir="/gscratch/scrubbed/gds001/"
 Entering Link 1 = /sw/contrib/gaussian/g16/A03/g16/l1.exe PID=     30304.
  
 Copyright (c) 1988,1990,1992,1993,1995,1998,2003,2009,2016,
            Gaussian, Inc.  All Rights Reserved.
  
 This is part of the Gaussian(R) 16 program.  It is based on
 the Gaussian(R) 09 system (copyright 2009, Gaussian, Inc.),
 the Gaussian(R) 03 system (copyright 2003, Gaussian, Inc.),
 the Gaussian(R) 98 system (copyright 1998, Gaussian, Inc.),
 the Gaussian(R) 94 system (copyright 1995, Gaussian, Inc.),
 the Gaussian 92(TM) system (copyright 1992, Gaussian, Inc.),
 the Gaussian 90(TM) system (copyright 1990, Gaussian, Inc.),
 the Gaussian 88(TM) system (copyright 1988, Gaussian, Inc.),
 the Gaussian 86(TM) system (copyright 1986, Carnegie Mellon
 University), and the Gaussian 82(TM) system (copyright 1983,
 Carnegie Mellon University). Gaussian is a federally registered
 trademark of Gaussian, Inc.
  
 This software contains proprietary and confidential information,
 including trade secrets, belonging to Gaussian, Inc.
  
 This software is provided under written license and may be
 used, copied, transmitted, or stored only in accord with that
 written license.
  
 The following legend is applicable only to US Government
 contracts under FAR:
  
                    RESTRICTED RIGHTS LEGEND
  
 Use, reproduction and disclosure by the US Government is
 subject to restrictions as set forth in subparagraphs (a)
 and (c) of the Commercial Computer Software - Restricted
 Rights clause in FAR 52.227-19.
  
 Gaussian, Inc.
 340 Quinnipiac St., Bldg. 40, Wallingford CT 06492
  
  
 ---------------------------------------------------------------
 Warning -- This program may not be used in any manner that
 competes with the business of Gaussian, Inc. or will provide
 assistance to any competitor of Gaussian, Inc.  The licensee
 of this program is prohibited from giving any competitor of
 Gaussian, Inc. access to this program.  By using this program,
 the user acknowledges that Gaussian, Inc. is engaged in the
 business of creating and licensing software in the field of
 computational chemistry and represents and warrants to the
 licensee that it is not a competitor of Gaussian, Inc. and that
 it will not use this program in any manner prohibited above.
 ---------------------------------------------------------------
  

 Cite this work as:
 Gaussian 16, Revision A.03,
 M. J. Frisch, G. W. Trucks, H. B. Schlegel, G. E. Scuseria, 
 M. A. Robb, J. R. Cheeseman, G. Scalmani, V. Barone, 
 G. A. Petersson, H. Nakatsuji, X. Li, M. Caricato, A. V. Marenich, 
 J. Bloino, B. G. Janesko, R. Gomperts, B. Mennucci, H. P. Hratchian, 
 J. V. Ortiz, A. F. Izmaylov, J. L. Sonnenberg, D. Williams-Young, 
 F. Ding, F. Lipparini, F. Egidi, J. Goings, B. Peng, A. Petrone, 
 T. Henderson, D. Ranasinghe, V. G. Zakrzewski, J. Gao, N. Rega, 
 G. Zheng, W. Liang, M. Hada, M. Ehara, K. Toyota, R. Fukuda, 
 J. Hasegawa, M. Ishida, T. Nakajima, Y. Honda, O. Kitao, H. Nakai, 
 T. Vreven, K. Throssell, J. A. Montgomery, Jr., J. E. Peralta, 
 F. Ogliaro, M. J. Bearpark, J. J. Heyd, E. N. Brothers, K. N. Kudin, 
 V. N. Staroverov, T. A. Keith, R. Kobayashi, J. Normand, 
 K. Raghavachari, A. P. Rendell, J. C. Burant, S. S. Iyengar, 
 J. Tomasi, M. Cossi, J. M. Millam, M. Klene, C. Adamo, R. Cammi, 
 J. W. Ochterski, R. L. Martin, K. Morokuma, O. Farkas, 
 J. B. Foresman, and D. J. Fox, Gaussian, Inc., Wallingford CT, 2016.
 
 ******************************************
 Gaussian 16:  ES64L-G16RevA.03 25-Dec-2016
                 7-Apr-2023 
 ******************************************
 %nprocshared=28
 Will use up to   28 processors via shared memory.
 %mem=41GB
 ---------------------------------------------------------
 # mp2/aug-cc-pVTZ opt=(z-matrix,Tight,MaxCycles=100) freq
 ---------------------------------------------------------
 1/6=100,7=10,10=7,18=40,38=1/1,3;
 2/12=2,17=6,18=5,29=3,40=1/2;
 3/5=16,6=1,7=10,11=9,25=1,30=1,71=1/1,2,3;
 4//1;
 5/5=2,38=5/2;
 8/6=4,10=1/1;
 9/15=2,16=-3/6;
 10/5=1/2;
 6/7=2,8=2,9=2,10=2/1;
 7/12=2,29=1/1,2,3,16;
 1/6=100,7=10,10=7,18=40/3(2);
 2/29=3/2;
 99//99;
 2/29=3/2;
 3/5=16,6=1,7=10,11=9,25=1,30=1,71=1/1,2,3;
 4/5=5,16=3,69=1/1;
 5/5=2,38=5/2;
 8/6=4,10=1/1;
 9/15=2,16=-3/6;
 10/5=1/2;
 7/12=2/1,2,3,16;
 1/6=100,7=10,18=40/3(-8);
 2/29=3/2;
 6/7=2,8=2,9=2,10=2/1;
 99//99;
 ---------------
 Optimize Linear
 ---------------
 Symbolic Z-matrix:
 Charge =  0 Multiplicity = 1
 F1
 X2                   1     1. 
 H3                   1    Rah      2     90. 
 F4                   1    Rab      2     90.      3     0.       0
 X5                   4     1.       1     90.      2     90.      0
 H5                   4    R1       5     90.      1    D1       0
       Variables:
  R1                    0.9248                   
  D1                  110.                       
  Rah                   0.9278                   
  Rab                   2.7497                   
 

 GradGradGradGradGradGradGradGradGradGradGradGradGradGradGradGradGradGrad
 Berny optimization.
 Initialization pass.
                       ----------------------------
                       !    Initial Parameters    !
                       ! (Angstroms and Degrees)  !
 ----------------------                            ----------------------
 !      Name          Value   Derivative information (Atomic Units)     !
 ------------------------------------------------------------------------
 !       R1          0.9248   estimate D2E/DX2                          !
 !       D1        110.0      estimate D2E/DX2                          !
 !       Rah         0.9278   estimate D2E/DX2                          !
 !       Rab         2.7497   estimate D2E/DX2                          !
 ------------------------------------------------------------------------
 Trust Radius=3.00D-01 FncErr=1.00D-07 GrdErr=1.00D-07 EigMax=2.50D+02 EigMin=1.00D-04
 Number of steps in this run=    100 maximum allowed number of steps=    100.
 GradGradGradGradGradGradGradGradGradGradGradGradGradGradGradGradGradGrad

 ---------------------------------------------------------------------------------------------------
                            Z-MATRIX (ANGSTROMS AND DEGREES)
   CD    Cent   Atom    N1       Length/X        N2       Alpha/Y        N3        Beta/Z          J
 ---------------------------------------------------------------------------------------------------
      1      1  F 
      2         X        1   1.000000(     1)
      3      2  H        1   0.927800(     2)      2   90.000(     6)
      4      3  F        1   2.749700(     3)      2   90.000(     7)      3    0.000(    10)      0
      5         X        4   1.000000(     4)      1   90.000(     8)      2   90.000(    11)      0
      6      4  H        4   0.924800(     5)      5   90.000(     9)      1  110.000(    12)      0
 ---------------------------------------------------------------------------------------------------
                         Z-Matrix orientation:                         
 ---------------------------------------------------------------------
 Center     Atomic      Atomic             Coordinates (Angstroms)
 Number     Number       Type             X           Y           Z
 ---------------------------------------------------------------------
      1          9           0        0.000000    0.000000    0.000000
      2         -1           0        0.000000    0.000000    1.000000
      3          1           0        0.927800    0.000000    0.000000
      4          9           0        2.749700    0.000000    0.000000
      5         -1           0        2.749700   -1.000000    0.000000
      6          1           0        3.066000   -0.000000    0.869028
 ---------------------------------------------------------------------
                    Distance matrix (angstroms):
                    1          2          3          4          5
     1  F    0.000000
     2  X    1.000000   0.000000
     3  H    0.927800   1.364116   0.000000
     4  F    2.749700   2.925893   1.821900   0.000000
     5  X    2.925893   3.092062   2.078297   1.000000   0.000000
     6  H    3.186780   3.068796   2.308053   0.924800   1.362077
                    6
     6  H    0.000000
 Stoichiometry    F2H2
 Framework group  CS[SG(F2H2)]
 Deg. of freedom     5
 Full point group                 CS      NOp   2
 Largest Abelian subgroup         CS      NOp   2
 Largest concise Abelian subgroup C1      NOp   1
                         Standard orientation:                         
 ---------------------------------------------------------------------
 Center     Atomic      Atomic             Coordinates (Angstroms)
 Number     Number       Type             X           Y           Z
 ---------------------------------------------------------------------
      1          9           0        0.043451    1.437055    0.000000
      2          1           0        0.043451    0.509255    0.000000
      3          9           0        0.043451   -1.312645    0.000000
      4          1           0       -0.825576   -1.628945    0.000000
 ---------------------------------------------------------------------
 Rotational constants (GHZ):         708.3603772           6.7478307           6.6841575
 Standard basis: Aug-CC-pVTZ (5D, 7F)
 There are   110 symmetry adapted cartesian basis functions of A'  symmetry.
 There are    50 symmetry adapted cartesian basis functions of A"  symmetry.
 There are    92 symmetry adapted basis functions of A'  symmetry.
 There are    46 symmetry adapted basis functions of A"  symmetry.
   138 basis functions,   198 primitive gaussians,   160 cartesian basis functions
    10 alpha electrons       10 beta electrons
       nuclear repulsion energy        30.2092930344 Hartrees.
 NAtoms=    4 NActive=    4 NUniq=    4 SFac= 1.00D+00 NAtFMM=   60 NAOKFM=F Big=F
 Integral buffers will be    131072 words long.
 Raffenetti 1 integral format.
 Two-electron integral symmetry is turned on.
 One-electron integrals computed using PRISM.
 NBasis=   138 RedAO= T EigKep=  1.51D-04  NBF=    92    46
 NBsUse=   138 1.00D-06 EigRej= -1.00D+00 NBFU=    92    46
 ExpMin= 2.53D-02 ExpMax= 1.95D+04 ExpMxC= 6.65D+02 IAcc=3 IRadAn=         5 AccDes= 0.00D+00
 Harris functional with IExCor=  205 and IRadAn=       5 diagonalized for initial guess.
 HarFok:  IExCor=  205 AccDes= 0.00D+00 IRadAn=         5 IDoV= 1 UseB2=F ITyADJ=14
 ICtDFT=  3500011 ScaDFX=  1.000000  1.000000  1.000000  1.000000
 FoFCou: FMM=F IPFlag=           0 FMFlag=      100000 FMFlg1=           0
         NFxFlg=           0 DoJE=T BraDBF=F KetDBF=T FulRan=T
         wScrn=  0.000000 ICntrl=       500 IOpCl=  0 I1Cent=   200000004 NGrid=           0
         NMat0=    1 NMatS0=      1 NMatT0=    0 NMatD0=    1 NMtDS0=    0 NMtDT0=    0
 Petite list used in FoFCou.
 Initial guess orbital symmetries:
       Occupied  (A') (A') (A') (A') (A') (A') (A') (A") (A') (A")
       Virtual   (A') (A') (A') (A') (A") (A') (A') (A') (A") (A')
                 (A') (A") (A') (A") (A') (A') (A') (A') (A') (A')
                 (A") (A') (A") (A') (A") (A') (A") (A') (A") (A')
                 (A") (A') (A") (A') (A') (A") (A') (A') (A') (A')
                 (A") (A') (A') (A") (A') (A') (A") (A') (A") (A')
                 (A') (A') (A') (A') (A") (A') (A') (A") (A") (A')
                 (A") (A') (A") (A') (A') (A') (A') (A") (A") (A')
                 (A") (A') (A') (A') (A") (A') (A") (A') (A') (A")
                 (A') (A") (A') (A') (A") (A") (A') (A') (A") (A')
                 (A") (A') (A') (A') (A') (A') (A") (A') (A") (A')
                 (A') (A') (A") (A') (A") (A') (A") (A') (A") (A')
                 (A") (A') (A") (A') (A") (A') (A') (A") (A') (A")
                 (A') (A') (A") (A') (A') (A') (A') (A')
 The electronic state of the initial guess is 1-A'.
 Keep R1 ints in memory in symmetry-blocked form, NReq=69339737.
 Requested convergence on RMS density matrix=1.00D-08 within 128 cycles.
 Requested convergence on MAX density matrix=1.00D-06.
 Requested convergence on             energy=1.00D-06.
 No special actions if energy rises.
 SCF Done:  E(RHF) =  -200.126955245     A.U. after   10 cycles
            NFock= 10  Conv=0.30D-08     -V/T= 2.0010
 ExpMin= 2.53D-02 ExpMax= 1.95D+04 ExpMxC= 6.65D+02 IAcc=3 IRadAn=         5 AccDes= 0.00D+00
 HarFok:  IExCor=  205 AccDes= 0.00D+00 IRadAn=         5 IDoV=-2 UseB2=F ITyADJ=14
 ICtDFT= 12500011 ScaDFX=  1.000000  1.000000  1.000000  1.000000
 Range of M.O.s used for correlation:     3   138
 NBasis=   138 NAE=    10 NBE=    10 NFC=     2 NFV=     0
 NROrb=    136 NOA=     8 NOB=     8 NVA=   128 NVB=   128

 **** Warning!!: The largest alpha MO coefficient is  0.25458966D+02

 Fully direct method using O(ONN) memory.
 JobTyp=1 Pass  1:  I=   3 to  10 NPSUse= 28 ParTrn=T ParDer=T DoDerP=T.
 Spin components of T(2) and E(2):
     alpha-alpha T2 =       0.1399537775D-01 E2=     -0.7179460505D-01
     alpha-beta  T2 =       0.7621292534D-01 E2=     -0.4185055381D+00
     beta-beta   T2 =       0.1399537775D-01 E2=     -0.7179460505D-01
 ANorm=    0.1050810963D+01
 E2 =    -0.5620947482D+00 EUMP2 =    -0.20068904999361D+03
          IDoAtm=1111
          Differentiating once with respect to electric field.
                with respect to dipole field.
          Differentiating once with respect to nuclear coordinates.
 Keep R1 ints in memory in symmetry-blocked form, NReq=69340661.
          There are     1 degrees of freedom in the 1st order CPHF.  IDoFFX=0 NUNeed=     1.
 LinEq1:  Iter=  0 NonCon=     1 RMS=3.97D-03 Max=4.40D-02 NDo=     1
 AX will form     1 AO Fock derivatives at one time.
 LinEq1:  Iter=  1 NonCon=     1 RMS=5.84D-04 Max=6.19D-03 NDo=     1
 LinEq1:  Iter=  2 NonCon=     1 RMS=2.10D-04 Max=1.66D-03 NDo=     1
 LinEq1:  Iter=  3 NonCon=     1 RMS=4.46D-05 Max=3.86D-04 NDo=     1
 LinEq1:  Iter=  4 NonCon=     1 RMS=6.13D-06 Max=4.29D-05 NDo=     1
 LinEq1:  Iter=  5 NonCon=     1 RMS=8.30D-07 Max=6.18D-06 NDo=     1
 LinEq1:  Iter=  6 NonCon=     1 RMS=2.41D-07 Max=2.92D-06 NDo=     1
 LinEq1:  Iter=  7 NonCon=     1 RMS=7.38D-08 Max=5.34D-07 NDo=     1
 LinEq1:  Iter=  8 NonCon=     1 RMS=1.06D-08 Max=8.13D-08 NDo=     1
 LinEq1:  Iter=  9 NonCon=     1 RMS=1.49D-09 Max=1.30D-08 NDo=     1
 LinEq1:  Iter= 10 NonCon=     1 RMS=3.06D-10 Max=2.43D-09 NDo=     1
 LinEq1:  Iter= 11 NonCon=     0 RMS=5.23D-11 Max=4.62D-10 NDo=     1
 Linear equations converged to 1.000D-10 1.000D-09 after    11 iterations.
 End of Minotr F.D. properties file   721 does not exist.
 End of Minotr F.D. properties file   722 does not exist.
 End of Minotr F.D. properties file   788 does not exist.

 **********************************************************************

            Population analysis using the SCF density.

 **********************************************************************

 Orbital symmetries:
       Occupied  (A') (A') (A') (A') (A') (A') (A") (A') (A') (A")
       Virtual   (A') (A') (A') (A') (A") (A') (A') (A") (A') (A')
                 (A") (A') (A') (A") (A') (A') (A') (A') (A') (A')
                 (A") (A') (A") (A') (A") (A") (A') (A') (A') (A")
                 (A') (A") (A') (A") (A') (A') (A') (A") (A') (A')
                 (A") (A') (A') (A") (A') (A') (A") (A') (A") (A')
                 (A') (A') (A') (A') (A') (A") (A") (A') (A') (A")
                 (A") (A') (A') (A") (A') (A') (A") (A') (A") (A')
                 (A") (A') (A') (A') (A") (A') (A") (A') (A') (A")
                 (A") (A') (A') (A") (A') (A') (A") (A') (A") (A")
                 (A') (A') (A') (A') (A') (A') (A") (A') (A") (A')
                 (A') (A') (A") (A') (A") (A') (A") (A') (A") (A')
                 (A") (A') (A") (A') (A") (A') (A') (A") (A') (A")
                 (A') (A') (A") (A') (A') (A') (A') (A')
 The electronic state is 1-A'.
 Alpha  occ. eigenvalues --  -26.34564 -26.27303  -1.64893  -1.57572  -0.81670
 Alpha  occ. eigenvalues --   -0.75503  -0.69695  -0.68723  -0.62611  -0.62590
 Alpha virt. eigenvalues --    0.01896   0.06273   0.12804   0.15926   0.16734
 Alpha virt. eigenvalues --    0.18335   0.21120   0.23737   0.25276   0.25925
 Alpha virt. eigenvalues --    0.27272   0.29368   0.34188   0.35811   0.40379
 Alpha virt. eigenvalues --    0.43620   0.44750   0.61971   0.66590   0.69853
 Alpha virt. eigenvalues --    0.74183   0.77008   0.80187   0.82340   0.83278
 Alpha virt. eigenvalues --    0.89020   0.89107   0.91067   0.95083   1.00090
 Alpha virt. eigenvalues --    1.05033   1.06350   1.08162   1.09627   1.11231
 Alpha virt. eigenvalues --    1.11507   1.17322   1.18456   1.20483   1.22184
 Alpha virt. eigenvalues --    1.23886   1.29449   1.32491   1.50949   1.52204
 Alpha virt. eigenvalues --    1.60290   1.65058   1.79880   1.84368   1.87361
 Alpha virt. eigenvalues --    2.02320   2.31949   2.36503   2.65585   2.79599
 Alpha virt. eigenvalues --    2.83007   2.83337   2.83472   2.86217   2.87022
 Alpha virt. eigenvalues --    2.95327   2.95328   2.99241   3.00887   3.01740
 Alpha virt. eigenvalues --    3.08411   3.10435   3.10873   3.23086   3.23268
 Alpha virt. eigenvalues --    3.26919   3.29301   3.33398   3.52059   3.58186
 Alpha virt. eigenvalues --    3.60052   3.73855   3.75846   4.04115   4.15153
 Alpha virt. eigenvalues --    4.18650   4.18698   4.22986   4.29188   4.31012
 Alpha virt. eigenvalues --    4.39571   4.43219   4.53996   4.82313   4.83952
 Alpha virt. eigenvalues --    4.89441   5.01337   5.05962   5.49956   5.64049
 Alpha virt. eigenvalues --    5.79653   6.00624   6.11289   6.12621   6.33147
 Alpha virt. eigenvalues --    7.58188   7.71880   8.84905   8.85201   8.85214
 Alpha virt. eigenvalues --    8.89786   8.97479   8.97629   8.98667   9.13080
 Alpha virt. eigenvalues --    9.18842   9.25188   9.32347   9.33069   9.38842
 Alpha virt. eigenvalues --    9.38987   9.40510   9.40981   9.43687   9.52899
 Alpha virt. eigenvalues --    9.56687   9.60853   9.66587   9.72884   9.87668
 Alpha virt. eigenvalues --    9.95970  14.52416  15.96554
          Condensed to atoms (all electrons):
               1          2          3          4
     1  F    9.294486   0.143877  -0.025562   0.001188
     2  H    0.143877   0.475281  -0.044725  -0.003201
     3  F   -0.025562  -0.044725   9.295532   0.193559
     4  H    0.001188  -0.003201   0.193559   0.404428
 Mulliken charges:
               1
     1  F   -0.413989
     2  H    0.428768
     3  F   -0.418805
     4  H    0.404026
 Sum of Mulliken charges =  -0.00000
 Mulliken charges with hydrogens summed into heavy atoms:
               1
     1  F    0.014779
     3  F   -0.014779
 Electronic spatial extent (au):  <R**2>=            159.1251
 Charge=             -0.0000 electrons
 Dipole moment (field-independent basis, Debye):
    X=             -1.8440    Y=             -3.0664    Z=              0.0000  Tot=              3.5781
 Quadrupole moment (field-independent basis, Debye-Ang):
   XX=             -9.2443   YY=            -12.2169   ZZ=            -11.3727
   XY=              3.2046   XZ=              0.0000   YZ=              0.0000
 Traceless Quadrupole moment (field-independent basis, Debye-Ang):
   XX=              1.7003   YY=             -1.2723   ZZ=             -0.4280
   XY=              3.2046   XZ=              0.0000   YZ=              0.0000
 Octapole moment (field-independent basis, Debye-Ang**2):
  XXX=             -2.0102  YYY=            -10.7934  ZZZ=              0.0000  XYY=             -5.8213
  XXY=             -3.8369  XXZ=              0.0000  XZZ=             -0.1335  YZZ=             -0.4197
  YYZ=              0.0000  XYZ=              0.0000
 Hexadecapole moment (field-independent basis, Debye-Ang**3):
 XXXX=             -6.9049 YYYY=           -125.1440 ZZZZ=             -7.5107 XXXY=              1.1387
 XXXZ=              0.0000 YYYX=              7.7406 YYYZ=              0.0000 ZZZX=              0.0000
 ZZZY=              0.0000 XXYY=            -18.1129 XXZZ=             -2.6557 YYZZ=            -23.4669
 XXYZ=              0.0000 YYXZ=              0.0000 ZZXY=             -0.5203
 N-N= 3.020929303436D+01 E-N=-5.405019957214D+02  KE= 1.999320278964D+02
 Symmetry A'   KE= 1.874084182558D+02
 Symmetry A"   KE= 1.252360964057D+01
 Calling FoFJK, ICntrl=  10002127 FMM=F ISym2X=1 I1Cent= 0 IOpClX= 0 NMat=1 NMatS=1 NMatT=0.
 ***** Axes restored to original set *****
 -------------------------------------------------------------------
 Center     Atomic                   Forces (Hartrees/Bohr)
 Number     Number              X              Y              Z
 -------------------------------------------------------------------
      1        9          -0.000257586   -0.000000000    0.001146475
      2        1           0.000294468   -0.000000000   -0.002252536
      3        9          -0.001178158   -0.000000000    0.000978480
      4        1           0.001141276   -0.000000000    0.000127581
 -------------------------------------------------------------------
 Cartesian Forces:  Max     0.002252536 RMS     0.000922210
 -----------------------------------------------------------------------------------------------
                       Internal Coordinate Forces (Hartree/Bohr or radian)
  Cent   Atom   N1       Length/X         N2         Alpha/Y        N3         Beta/Z          J
 -----------------------------------------------------------------------------------------------
      1  F 
         X        1   0.000000(     1)
      2  H        1   0.000294(     2)      2   0.003949(     6)
      3  F        1  -0.000037(     3)      2  -0.003949(     7)      3   0.000000(    10)     0
         X        4  -0.000000(     4)      1  -0.000000(     8)      2  -0.000000(    11)     0
      4  H        4   0.000510(     5)      5  -0.000000(     9)      1   0.001798(    12)     0
 -----------------------------------------------------------------------------------------------
 Internal  Forces:  Max     0.003949345 RMS     0.001702341

 GradGradGradGradGradGradGradGradGradGradGradGradGradGradGradGradGradGrad
 Berny optimization.
 Search for a local minimum.
 Step number   1 out of a maximum of  100
 All quantities printed in internal units (Hartrees-Bohrs-Radians)
 Second derivative matrix not updated -- first step.
 The second derivative matrix:
                          R1        D1        Rah       Rab
           R1           0.63789
           D1          -0.00000   0.16000
           Rah         -0.00000   0.00000   0.63018
           Rab          0.00000  -0.00000  -0.00000   0.02495
 ITU=  0
     Eigenvalues ---    0.02495   0.16000   0.63018   0.63789
 RFO step:  Lambda=-2.08046315D-05 EMin= 2.49545442D-02
 Linear search not attempted -- first point.
 Variable       Old X    -DE/DX   Delta X   Delta X   Delta X     New X
                                 (Linear)    (Quad)   (Total)
    R1        1.74762   0.00051   0.00000   0.00080   0.00080   1.74842
    D1        1.91986   0.00180   0.00000   0.01124   0.01124   1.93110
   Rah        1.75329   0.00029   0.00000   0.00047   0.00047   1.75376
   Rab        5.19618  -0.00004   0.00000  -0.00148  -0.00148   5.19470
         Item               Value     Threshold  Converged?
 Maximum Force            0.001798     0.000015     NO 
 RMS     Force            0.000946     0.000010     NO 
 Maximum Displacement     0.011236     0.000060     NO 
 RMS     Displacement     0.005685     0.000040     NO 
 Predicted change in Energy=-1.040232D-05
 GradGradGradGradGradGradGradGradGradGradGradGradGradGradGradGradGradGrad

 ---------------------------------------------------------------------------------------------------
                            Z-MATRIX (ANGSTROMS AND DEGREES)
   CD    Cent   Atom    N1       Length/X        N2       Alpha/Y        N3        Beta/Z          J
 ---------------------------------------------------------------------------------------------------
      1      1  F 
      2         X        1   1.000000(     1)
      3      2  H        1   0.928047(     2)      2   90.000(     6)
      4      3  F        1   2.748919(     3)      2   90.000(     7)      3    0.000(    10)      0
      5         X        4   1.000000(     4)      1   90.000(     8)      2   90.000(    11)      0
      6      4  H        4   0.925223(     5)      5   90.000(     9)      1  110.644(    12)      0
 ---------------------------------------------------------------------------------------------------
                         Z-Matrix orientation:                         
 ---------------------------------------------------------------------
 Center     Atomic      Atomic             Coordinates (Angstroms)
 Number     Number       Type             X           Y           Z
 ---------------------------------------------------------------------
      1          9           0        0.000000    0.000000    0.000000
      2         -1           0        0.000000    0.000000    1.000000
      3          1           0        0.928047    0.000000    0.000000
      4          9           0        2.748919    0.000000    0.000000
      5         -1           0        2.748919   -1.000000    0.000000
      6          1           0        3.075112   -0.000000    0.865815
 ---------------------------------------------------------------------
                    Distance matrix (angstroms):
                    1          2          3          4          5
     1  F    0.000000
     2  X    1.000000   0.000000
     3  H    0.928047   1.364284   0.000000
     4  F    2.748919   2.925159   1.820871   0.000000
     5  X    2.925159   3.091368   2.077396   1.000000   0.000000
     6  H    3.194675   3.078038   2.315064   0.925223   1.362365
                    6
     6  H    0.000000
 Stoichiometry    F2H2
 Framework group  CS[SG(F2H2)]
 Deg. of freedom     5
 Full point group                 CS      NOp   2
 Largest Abelian subgroup         CS      NOp   2
 Largest concise Abelian subgroup C1      NOp   1
                         Standard orientation:                         
 ---------------------------------------------------------------------
 Center     Atomic      Atomic             Coordinates (Angstroms)
 Number     Number       Type             X           Y           Z
 ---------------------------------------------------------------------
      1          9           0        0.043291    1.437171    0.000000
      2          1           0        0.043291    0.509124    0.000000
      3          9           0        0.043291   -1.311747    0.000000
      4          1           0       -0.822524   -1.637941    0.000000
 ---------------------------------------------------------------------
 Rotational constants (GHZ):         713.9470746           6.7486818           6.6854863
 Standard basis: Aug-CC-pVTZ (5D, 7F)
 There are   110 symmetry adapted cartesian basis functions of A'  symmetry.
 There are    50 symmetry adapted cartesian basis functions of A"  symmetry.
 There are    92 symmetry adapted basis functions of A'  symmetry.
 There are    46 symmetry adapted basis functions of A"  symmetry.
   138 basis functions,   198 primitive gaussians,   160 cartesian basis functions
    10 alpha electrons       10 beta electrons
       nuclear repulsion energy        30.2070900485 Hartrees.
 NAtoms=    4 NActive=    4 NUniq=    4 SFac= 1.00D+00 NAtFMM=   60 NAOKFM=F Big=F
 Integral buffers will be    131072 words long.
 Raffenetti 1 integral format.
 Two-electron integral symmetry is turned on.
 One-electron integrals computed using PRISM.
 NBasis=   138 RedAO= T EigKep=  1.52D-04  NBF=    92    46
 NBsUse=   138 1.00D-06 EigRej= -1.00D+00 NBFU=    92    46
 Initial guess from the checkpoint file:  "/gscratch/scrubbed/gds001/Gau-30304.chk"
 B after Tr=    -0.000000   -0.000000    0.000000
         Rot=    1.000000   -0.000000   -0.000000   -0.000173 Ang=  -0.02 deg.
 Initial guess orbital symmetries:
       Occupied  (A') (A') (A') (A') (A') (A') (A") (A') (A') (A")
       Virtual   (A') (A') (A') (A') (A") (A') (A') (A") (A') (A')
                 (A") (A') (A') (A") (A') (A') (A') (A') (A') (A')
                 (A") (A') (A") (A') (A") (A") (A') (A') (A') (A")
                 (A') (A") (A') (A") (A') (A') (A') (A") (A') (A')
                 (A") (A') (A') (A") (A') (A') (A") (A') (A") (A')
                 (A') (A') (A') (A') (A') (A") (A") (A') (A') (A")
                 (A") (A') (A') (A") (A') (A') (A") (A') (A") (A')
                 (A") (A') (A') (A') (A") (A') (A") (A') (A') (A")
                 (A") (A') (A') (A") (A') (A') (A") (A') (A") (A")
                 (A') (A') (A') (A') (A') (A') (A") (A') (A") (A')
                 (A') (A') (A") (A') (A") (A') (A") (A') (A") (A')
                 (A") (A') (A") (A') (A") (A') (A') (A") (A') (A")
                 (A') (A') (A") (A') (A') (A') (A') (A')
 Keep R1 ints in memory in symmetry-blocked form, NReq=69339737.
 Requested convergence on RMS density matrix=1.00D-08 within 128 cycles.
 Requested convergence on MAX density matrix=1.00D-06.
 Requested convergence on             energy=1.00D-06.
 No special actions if energy rises.
 SCF Done:  E(RHF) =  -200.126950459     A.U. after    8 cycles
            NFock=  8  Conv=0.39D-08     -V/T= 2.0010
 ExpMin= 2.53D-02 ExpMax= 1.95D+04 ExpMxC= 6.65D+02 IAcc=3 IRadAn=         5 AccDes= 0.00D+00
 HarFok:  IExCor=  205 AccDes= 0.00D+00 IRadAn=         5 IDoV=-2 UseB2=F ITyADJ=14
 ICtDFT= 12500011 ScaDFX=  1.000000  1.000000  1.000000  1.000000
 Range of M.O.s used for correlation:     3   138
 NBasis=   138 NAE=    10 NBE=    10 NFC=     2 NFV=     0
 NROrb=    136 NOA=     8 NOB=     8 NVA=   128 NVB=   128

 **** Warning!!: The largest alpha MO coefficient is  0.25451947D+02

 Fully direct method using O(ONN) memory.
 JobTyp=1 Pass  1:  I=   3 to  10 NPSUse= 28 ParTrn=T ParDer=T DoDerP=T.
 Spin components of T(2) and E(2):
     alpha-alpha T2 =       0.1399743331D-01 E2=     -0.7179794207D-01
     alpha-beta  T2 =       0.7622598328D-01 E2=     -0.4185232852D+00
     beta-beta   T2 =       0.1399743331D-01 E2=     -0.7179794207D-01
 ANorm=    0.1050819133D+01
 E2 =    -0.5621191693D+00 EUMP2 =    -0.20068906962875D+03
          IDoAtm=1111
          Differentiating once with respect to electric field.
                with respect to dipole field.
          Differentiating once with respect to nuclear coordinates.
 Keep R1 ints in memory in symmetry-blocked form, NReq=69340661.
          There are     1 degrees of freedom in the 1st order CPHF.  IDoFFX=0 NUNeed=     1.
 LinEq1:  Iter=  0 NonCon=     1 RMS=3.97D-03 Max=4.40D-02 NDo=     1
 AX will form     1 AO Fock derivatives at one time.
 LinEq1:  Iter=  1 NonCon=     1 RMS=5.84D-04 Max=6.18D-03 NDo=     1
 LinEq1:  Iter=  2 NonCon=     1 RMS=2.10D-04 Max=1.66D-03 NDo=     1
 LinEq1:  Iter=  3 NonCon=     1 RMS=4.46D-05 Max=3.85D-04 NDo=     1
 LinEq1:  Iter=  4 NonCon=     1 RMS=6.11D-06 Max=4.28D-05 NDo=     1
 LinEq1:  Iter=  5 NonCon=     1 RMS=8.30D-07 Max=6.17D-06 NDo=     1
 LinEq1:  Iter=  6 NonCon=     1 RMS=2.42D-07 Max=2.93D-06 NDo=     1
 LinEq1:  Iter=  7 NonCon=     1 RMS=7.36D-08 Max=5.29D-07 NDo=     1
 LinEq1:  Iter=  8 NonCon=     1 RMS=1.06D-08 Max=8.07D-08 NDo=     1
 LinEq1:  Iter=  9 NonCon=     1 RMS=1.48D-09 Max=1.30D-08 NDo=     1
 LinEq1:  Iter= 10 NonCon=     1 RMS=3.06D-10 Max=2.36D-09 NDo=     1
 LinEq1:  Iter= 11 NonCon=     0 RMS=5.20D-11 Max=4.48D-10 NDo=     1
 Linear equations converged to 1.000D-10 1.000D-09 after    11 iterations.
 End of Minotr F.D. properties file   721 does not exist.
 End of Minotr F.D. properties file   722 does not exist.
 End of Minotr F.D. properties file   788 does not exist.
 Calling FoFJK, ICntrl=  10002127 FMM=F ISym2X=1 I1Cent= 0 IOpClX= 0 NMat=1 NMatS=1 NMatT=0.
 ***** Axes restored to original set *****
 -------------------------------------------------------------------
 Center     Atomic                   Forces (Hartrees/Bohr)
 Number     Number              X              Y              Z
 -------------------------------------------------------------------
      1        9           0.000005021   -0.000000000    0.001113341
      2        1           0.000022687   -0.000000000   -0.002157347
      3        9          -0.000903445   -0.000000000    0.001379839
      4        1           0.000875737   -0.000000000   -0.000335833
 -------------------------------------------------------------------
 Cartesian Forces:  Max     0.002157347 RMS     0.000889479
 -----------------------------------------------------------------------------------------------
                       Internal Coordinate Forces (Hartree/Bohr or radian)
  Cent   Atom   N1       Length/X         N2         Alpha/Y        N3         Beta/Z          J
 -----------------------------------------------------------------------------------------------
      1  F 
         X        1   0.000000(     1)
      2  H        1   0.000023(     2)      2   0.003783(     6)
      3  F        1  -0.000028(     3)      2  -0.003783(     7)      3   0.000000(    10)     0
         X        4  -0.000000(     4)      1   0.000000(     8)      2  -0.000000(    11)     0
      4  H        4  -0.000006(     5)      5  -0.000000(     9)      1   0.001640(    12)     0
 -----------------------------------------------------------------------------------------------
 Internal  Forces:  Max     0.003783459 RMS     0.001615536

 GradGradGradGradGradGradGradGradGradGradGradGradGradGradGradGradGradGrad
 Berny optimization.
 Search for a local minimum.
 Step number   2 out of a maximum of  100
 All quantities printed in internal units (Hartrees-Bohrs-Radians)
 Update second derivatives using D2CorN and points    1    2
 DE= -1.96D-05 DEPred=-1.04D-05 R= 1.89D+00
 TightC=F SS=  1.41D+00  RLast= 1.14D-02 DXNew= 5.0454D-01 3.4111D-02
 Trust test= 1.89D+00 RLast= 1.14D-02 DXMaxT set to 3.00D-01
 The second derivative matrix:
                          R1        D1        Rah       Rab
           R1           0.63793
           D1          -0.00483   0.01750
           Rah         -0.00006  -0.00395   0.63010
           Rab          0.00005   0.01057   0.00018   0.02464
 ITU=  1  0
     Eigenvalues ---    0.00987   0.03220   0.63013   0.63797
 RFO step:  Lambda=-3.56281076D-06 EMin= 9.87483238D-03
 Quartic linear search produced a step of  2.00000.
 Variable       Old X    -DE/DX   Delta X   Delta X   Delta X     New X
                                 (Linear)    (Quad)   (Total)
    R1        1.74842  -0.00001   0.00160  -0.00173  -0.00013   1.74829
    D1        1.93110   0.00164   0.02247   0.00366   0.02614   1.95723
   Rah        1.75376   0.00002   0.00093  -0.00088   0.00005   1.75381
   Rab        5.19470  -0.00003  -0.00295   0.00446   0.00151   5.19621
         Item               Value     Threshold  Converged?
 Maximum Force            0.001640     0.000015     NO 
 RMS     Force            0.000820     0.000010     NO 
 Maximum Displacement     0.026135     0.000060     NO 
 RMS     Displacement     0.013090     0.000040     NO 
 Predicted change in Energy=-3.637759D-05
 GradGradGradGradGradGradGradGradGradGradGradGradGradGradGradGradGradGrad

 ---------------------------------------------------------------------------------------------------
                            Z-MATRIX (ANGSTROMS AND DEGREES)
   CD    Cent   Atom    N1       Length/X        N2       Alpha/Y        N3        Beta/Z          J
 ---------------------------------------------------------------------------------------------------
      1      1  F 
      2         X        1   1.000000(     1)
      3      2  H        1   0.928074(     2)      2   90.000(     6)
      4      3  F        1   2.749717(     3)      2   90.000(     7)      3    0.000(    10)      0
      5         X        4   1.000000(     4)      1   90.000(     8)      2   90.000(    11)      0
      6      4  H        4   0.925153(     5)      5   90.000(     9)      1  112.141(    12)      0
 ---------------------------------------------------------------------------------------------------
                         Z-Matrix orientation:                         
 ---------------------------------------------------------------------
 Center     Atomic      Atomic             Coordinates (Angstroms)
 Number     Number       Type             X           Y           Z
 ---------------------------------------------------------------------
      1          9           0        0.000000    0.000000    0.000000
      2         -1           0        0.000000    0.000000    1.000000
      3          1           0        0.928074    0.000000    0.000000
      4          9           0        2.749717    0.000000    0.000000
      5         -1           0        2.749717   -1.000000    0.000000
      6          1           0        3.098398   -0.000000    0.856930
 ---------------------------------------------------------------------
                    Distance matrix (angstroms):
                    1          2          3          4          5
     1  F    0.000000
     2  X    1.000000   0.000000
     3  H    0.928074   1.364302   0.000000
     4  F    2.749717   2.925909   1.821643   0.000000
     5  X    2.925909   3.092078   2.078072   1.000000   0.000000
     6  H    3.214716   3.101700   2.333375   0.925153   1.362317
                    6
     6  H    0.000000
 Stoichiometry    F2H2
 Framework group  CS[SG(F2H2)]
 Deg. of freedom     5
 Full point group                 CS      NOp   2
 Largest Abelian subgroup         CS      NOp   2
 Largest concise Abelian subgroup C1      NOp   1
                         Standard orientation:                         
 ---------------------------------------------------------------------
 Center     Atomic      Atomic             Coordinates (Angstroms)
 Number     Number       Type             X           Y           Z
 ---------------------------------------------------------------------
      1          9           0        0.042847    1.438696    0.000000
      2          1           0        0.042847    0.510622    0.000000
      3          9           0        0.042847   -1.311021    0.000000
      4          1           0       -0.814084   -1.659702    0.000000
 ---------------------------------------------------------------------
 Rotational constants (GHZ):         729.5674433           6.7379122           6.6762537
 Standard basis: Aug-CC-pVTZ (5D, 7F)
 There are   110 symmetry adapted cartesian basis functions of A'  symmetry.
 There are    50 symmetry adapted cartesian basis functions of A"  symmetry.
 There are    92 symmetry adapted basis functions of A'  symmetry.
 There are    46 symmetry adapted basis functions of A"  symmetry.
   138 basis functions,   198 primitive gaussians,   160 cartesian basis functions
    10 alpha electrons       10 beta electrons
       nuclear repulsion energy        30.1906101576 Hartrees.
 NAtoms=    4 NActive=    4 NUniq=    4 SFac= 1.00D+00 NAtFMM=   60 NAOKFM=F Big=F
 Integral buffers will be    131072 words long.
 Raffenetti 1 integral format.
 Two-electron integral symmetry is turned on.
 One-electron integrals computed using PRISM.
 NBasis=   138 RedAO= T EigKep=  1.52D-04  NBF=    92    46
 NBsUse=   138 1.00D-06 EigRej= -1.00D+00 NBFU=    92    46
 Initial guess from the checkpoint file:  "/gscratch/scrubbed/gds001/Gau-30304.chk"
 B after Tr=    -0.000000    0.000000    0.000000
         Rot=    1.000000    0.000000    0.000000   -0.000442 Ang=  -0.05 deg.
 Initial guess orbital symmetries:
       Occupied  (A') (A') (A') (A') (A') (A') (A") (A') (A') (A")
       Virtual   (A') (A') (A') (A') (A") (A') (A') (A") (A') (A')
                 (A") (A') (A') (A") (A') (A') (A') (A') (A') (A')
                 (A") (A') (A") (A') (A") (A') (A") (A') (A') (A")
                 (A') (A") (A') (A") (A') (A') (A') (A") (A') (A')
                 (A") (A') (A') (A") (A') (A') (A") (A') (A") (A')
                 (A') (A') (A') (A') (A') (A") (A") (A') (A') (A")
                 (A") (A') (A') (A") (A') (A') (A") (A') (A") (A')
                 (A") (A') (A') (A') (A") (A') (A") (A') (A') (A")
                 (A") (A') (A') (A") (A') (A') (A") (A') (A") (A")
                 (A') (A') (A') (A') (A') (A') (A") (A') (A") (A')
                 (A') (A') (A") (A') (A") (A') (A") (A') (A") (A')
                 (A") (A') (A") (A') (A") (A') (A') (A") (A') (A")
                 (A') (A') (A") (A') (A') (A') (A') (A')
 ExpMin= 2.53D-02 ExpMax= 1.95D+04 ExpMxC= 6.65D+02 IAcc=3 IRadAn=         5 AccDes= 0.00D+00
 Harris functional with IExCor=  205 and IRadAn=       5 diagonalized for initial guess.
 HarFok:  IExCor=  205 AccDes= 0.00D+00 IRadAn=         5 IDoV= 1 UseB2=F ITyADJ=14
 ICtDFT=  3500011 ScaDFX=  1.000000  1.000000  1.000000  1.000000
 FoFCou: FMM=F IPFlag=           0 FMFlag=      100000 FMFlg1=           0
         NFxFlg=           0 DoJE=T BraDBF=F KetDBF=T FulRan=T
         wScrn=  0.000000 ICntrl=       500 IOpCl=  0 I1Cent=   200000004 NGrid=           0
         NMat0=    1 NMatS0=      1 NMatT0=    0 NMatD0=    1 NMtDS0=    0 NMtDT0=    0
 Petite list used in FoFCou.
 Keep R1 ints in memory in symmetry-blocked form, NReq=69339737.
 Requested convergence on RMS density matrix=1.00D-08 within 128 cycles.
 Requested convergence on MAX density matrix=1.00D-06.
 Requested convergence on             energy=1.00D-06.
 No special actions if energy rises.
 SCF Done:  E(RHF) =  -200.127024963     A.U. after    9 cycles
            NFock=  9  Conv=0.21D-08     -V/T= 2.0010
 ExpMin= 2.53D-02 ExpMax= 1.95D+04 ExpMxC= 6.65D+02 IAcc=3 IRadAn=         5 AccDes= 0.00D+00
 HarFok:  IExCor=  205 AccDes= 0.00D+00 IRadAn=         5 IDoV=-2 UseB2=F ITyADJ=14
 ICtDFT= 12500011 ScaDFX=  1.000000  1.000000  1.000000  1.000000
 Range of M.O.s used for correlation:     3   138
 NBasis=   138 NAE=    10 NBE=    10 NFC=     2 NFV=     0
 NROrb=    136 NOA=     8 NOB=     8 NVA=   128 NVB=   128

 **** Warning!!: The largest alpha MO coefficient is  0.25501684D+02

 Fully direct method using O(ONN) memory.
 JobTyp=1 Pass  1:  I=   3 to  10 NPSUse= 28 ParTrn=T ParDer=T DoDerP=T.
 Spin components of T(2) and E(2):
     alpha-alpha T2 =       0.1399483962D-01 E2=     -0.7179188997D-01
     alpha-beta  T2 =       0.7621499923D-01 E2=     -0.4184990979D+00
     beta-beta   T2 =       0.1399483962D-01 E2=     -0.7179188997D-01
 ANorm=    0.1050811438D+01
 E2 =    -0.5620828779D+00 EUMP2 =    -0.20068910784044D+03
          IDoAtm=1111
          Differentiating once with respect to electric field.
                with respect to dipole field.
          Differentiating once with respect to nuclear coordinates.
 Keep R1 ints in memory in symmetry-blocked form, NReq=69340661.
          There are     1 degrees of freedom in the 1st order CPHF.  IDoFFX=0 NUNeed=     1.
 LinEq1:  Iter=  0 NonCon=     1 RMS=3.97D-03 Max=4.39D-02 NDo=     1
 AX will form     1 AO Fock derivatives at one time.
 LinEq1:  Iter=  1 NonCon=     1 RMS=5.83D-04 Max=6.13D-03 NDo=     1
 LinEq1:  Iter=  2 NonCon=     1 RMS=2.10D-04 Max=1.65D-03 NDo=     1
 LinEq1:  Iter=  3 NonCon=     1 RMS=4.44D-05 Max=3.82D-04 NDo=     1
 LinEq1:  Iter=  4 NonCon=     1 RMS=6.04D-06 Max=4.24D-05 NDo=     1
 LinEq1:  Iter=  5 NonCon=     1 RMS=8.33D-07 Max=6.17D-06 NDo=     1
 LinEq1:  Iter=  6 NonCon=     1 RMS=2.53D-07 Max=3.07D-06 NDo=     1
 LinEq1:  Iter=  7 NonCon=     1 RMS=7.34D-08 Max=5.25D-07 NDo=     1
 LinEq1:  Iter=  8 NonCon=     1 RMS=1.05D-08 Max=7.94D-08 NDo=     1
 LinEq1:  Iter=  9 NonCon=     1 RMS=1.47D-09 Max=1.28D-08 NDo=     1
 LinEq1:  Iter= 10 NonCon=     1 RMS=3.03D-10 Max=2.22D-09 NDo=     1
 LinEq1:  Iter= 11 NonCon=     0 RMS=5.12D-11 Max=4.14D-10 NDo=     1
 Linear equations converged to 1.000D-10 1.000D-09 after    11 iterations.
 End of Minotr F.D. properties file   721 does not exist.
 End of Minotr F.D. properties file   722 does not exist.
 End of Minotr F.D. properties file   788 does not exist.
 Calling FoFJK, ICntrl=  10002127 FMM=F ISym2X=1 I1Cent= 0 IOpClX= 0 NMat=1 NMatS=1 NMatT=0.
 ***** Axes restored to original set *****
 -------------------------------------------------------------------
 Center     Atomic                   Forces (Hartrees/Bohr)
 Number     Number              X              Y              Z
 -------------------------------------------------------------------
      1        9           0.000083766   -0.000000000    0.001036498
      2        1          -0.000036820   -0.000000000   -0.001939799
      3        9          -0.000723016   -0.000000000    0.001202155
      4        1           0.000676069   -0.000000000   -0.000298854
 -------------------------------------------------------------------
 Cartesian Forces:  Max     0.001939799 RMS     0.000783147
 -----------------------------------------------------------------------------------------------
                       Internal Coordinate Forces (Hartree/Bohr or radian)
  Cent   Atom   N1       Length/X         N2         Alpha/Y        N3         Beta/Z          J
 -----------------------------------------------------------------------------------------------
      1  F 
         X        1   0.000000(     1)
      2  H        1  -0.000037(     2)      2   0.003402(     6)
      3  F        1  -0.000047(     3)      2  -0.003402(     7)      3  -0.000000(    10)     0
         X        4   0.000000(     4)      1   0.000000(     8)      2   0.000000(    11)     0
      4  H        4  -0.000022(     5)      5  -0.000000(     9)      1   0.001292(    12)     0
 -----------------------------------------------------------------------------------------------
 Internal  Forces:  Max     0.003402030 RMS     0.001438175

 GradGradGradGradGradGradGradGradGradGradGradGradGradGradGradGradGradGrad
 Berny optimization.
 Search for a local minimum.
 Step number   3 out of a maximum of  100
 All quantities printed in internal units (Hartrees-Bohrs-Radians)
 Update second derivatives using D2CorN and points    1    2    3
 DE= -3.82D-05 DEPred=-3.64D-05 R= 1.05D+00
 TightC=F SS=  1.41D+00  RLast= 2.62D-02 DXNew= 5.0454D-01 7.8537D-02
 Trust test= 1.05D+00 RLast= 2.62D-02 DXMaxT set to 3.00D-01
 The second derivative matrix:
                          R1        D1        Rah       Rab
           R1           0.63804
           D1           0.00142   0.01301
           Rah          0.00003  -0.00044   0.63016
           Rab          0.00012   0.00235   0.00019   0.02428
 ITU=  1  1  0
     Eigenvalues ---    0.01253   0.02475   0.63016   0.63804
 RFO step:  Lambda=-6.56721737D-07 EMin= 1.25348831D-02
 Quartic linear search produced a step of  2.00000.
 Variable       Old X    -DE/DX   Delta X   Delta X   Delta X     New X
                                 (Linear)    (Quad)   (Total)
    R1        1.74829  -0.00002  -0.00027  -0.00008  -0.00035   1.74794
    D1        1.95723   0.00129   0.05227   0.00145   0.05372   2.01095
   Rah        1.75381  -0.00004   0.00010  -0.00025  -0.00015   1.75366
   Rab        5.19621  -0.00005   0.00302  -0.00506  -0.00204   5.19417
         Item               Value     Threshold  Converged?
 Maximum Force            0.001292     0.000015     NO 
 RMS     Force            0.000647     0.000010     NO 
 Maximum Displacement     0.053718     0.000060     NO 
 RMS     Displacement     0.026879     0.000040     NO 
 Predicted change in Energy=-5.091178D-05
 GradGradGradGradGradGradGradGradGradGradGradGradGradGradGradGradGradGrad

 ---------------------------------------------------------------------------------------------------
                            Z-MATRIX (ANGSTROMS AND DEGREES)
   CD    Cent   Atom    N1       Length/X        N2       Alpha/Y        N3        Beta/Z          J
 ---------------------------------------------------------------------------------------------------
      1      1  F 
      2         X        1   1.000000(     1)
      3      2  H        1   0.927996(     2)      2   90.000(     6)
      4      3  F        1   2.748639(     3)      2   90.000(     7)      3    0.000(    10)      0
      5         X        4   1.000000(     4)      1   90.000(     8)      2   90.000(    11)      0
      6      4  H        4   0.924968(     5)      5   90.000(     9)      1  115.219(    12)      0
 ---------------------------------------------------------------------------------------------------
                         Z-Matrix orientation:                         
 ---------------------------------------------------------------------
 Center     Atomic      Atomic             Coordinates (Angstroms)
 Number     Number       Type             X           Y           Z
 ---------------------------------------------------------------------
      1          9           0        0.000000    0.000000    0.000000
      2         -1           0        0.000000    0.000000    1.000000
      3          1           0        0.927996    0.000000    0.000000
      4          9           0        2.748639    0.000000    0.000000
      5         -1           0        2.748639   -1.000000    0.000000
      6          1           0        3.142748   -0.000000    0.836806
 ---------------------------------------------------------------------
                    Distance matrix (angstroms):
                    1          2          3          4          5
     1  F    0.000000
     2  X    1.000000   0.000000
     3  H    0.927996   1.364250   0.000000
     4  F    2.748639   2.924896   1.820642   0.000000
     5  X    2.924896   3.091119   2.077195   1.000000   0.000000
     6  H    3.252247   3.146983   2.367566   0.924968   1.362192
                    6
     6  H    0.000000
 Stoichiometry    F2H2
 Framework group  CS[SG(F2H2)]
 Deg. of freedom     5
 Full point group                 CS      NOp   2
 Largest Abelian subgroup         CS      NOp   2
 Largest concise Abelian subgroup C1      NOp   1
                         Standard orientation:                         
 ---------------------------------------------------------------------
 Center     Atomic      Atomic             Coordinates (Angstroms)
 Number     Number       Type             X           Y           Z
 ---------------------------------------------------------------------
      1          9           0        0.041840    1.440425   -0.000000
      2          1           0        0.041840    0.512428   -0.000000
      3          9           0        0.041840   -1.308214    0.000000
      4          1           0       -0.794966   -1.702324    0.000000
 ---------------------------------------------------------------------
 Rotational constants (GHZ):         766.6868706           6.7290934           6.6705470
 Standard basis: Aug-CC-pVTZ (5D, 7F)
 There are   110 symmetry adapted cartesian basis functions of A'  symmetry.
 There are    50 symmetry adapted cartesian basis functions of A"  symmetry.
 There are    92 symmetry adapted basis functions of A'  symmetry.
 There are    46 symmetry adapted basis functions of A"  symmetry.
   138 basis functions,   198 primitive gaussians,   160 cartesian basis functions
    10 alpha electrons       10 beta electrons
       nuclear repulsion energy        30.1792474570 Hartrees.
 NAtoms=    4 NActive=    4 NUniq=    4 SFac= 1.00D+00 NAtFMM=   60 NAOKFM=F Big=F
 Integral buffers will be    131072 words long.
 Raffenetti 1 integral format.
 Two-electron integral symmetry is turned on.
 One-electron integrals computed using PRISM.
 NBasis=   138 RedAO= T EigKep=  1.51D-04  NBF=    92    46
 NBsUse=   138 1.00D-06 EigRej= -1.00D+00 NBFU=    92    46
 Initial guess from the checkpoint file:  "/gscratch/scrubbed/gds001/Gau-30304.chk"
 B after Tr=     0.000000   -0.000000   -0.000000
         Rot=    1.000000    0.000000   -0.000000   -0.000924 Ang=  -0.11 deg.
 Initial guess orbital symmetries:
       Occupied  (A') (A') (A') (A') (A') (A') (A") (A') (A') (A")
       Virtual   (A') (A') (A') (A') (A") (A') (A') (A") (A') (A')
                 (A") (A') (A') (A") (A') (A') (A') (A') (A') (A')
                 (A") (A') (A") (A') (A") (A') (A") (A') (A') (A")
                 (A') (A") (A') (A") (A') (A') (A') (A") (A') (A')
                 (A") (A') (A') (A') (A") (A') (A") (A') (A") (A')
                 (A') (A') (A') (A') (A') (A") (A") (A') (A') (A")
                 (A") (A') (A') (A") (A') (A') (A") (A') (A") (A')
                 (A") (A') (A') (A') (A") (A') (A") (A') (A') (A")
                 (A") (A') (A') (A") (A') (A') (A") (A') (A") (A")
                 (A') (A') (A') (A') (A') (A') (A") (A') (A") (A')
                 (A') (A') (A") (A') (A") (A') (A") (A') (A") (A')
                 (A") (A') (A") (A') (A") (A') (A') (A") (A') (A")
                 (A') (A') (A") (A') (A') (A') (A') (A')
 ExpMin= 2.53D-02 ExpMax= 1.95D+04 ExpMxC= 6.65D+02 IAcc=3 IRadAn=         5 AccDes= 0.00D+00
 Harris functional with IExCor=  205 and IRadAn=       5 diagonalized for initial guess.
 HarFok:  IExCor=  205 AccDes= 0.00D+00 IRadAn=         5 IDoV= 1 UseB2=F ITyADJ=14
 ICtDFT=  3500011 ScaDFX=  1.000000  1.000000  1.000000  1.000000
 FoFCou: FMM=F IPFlag=           0 FMFlag=      100000 FMFlg1=           0
         NFxFlg=           0 DoJE=T BraDBF=F KetDBF=T FulRan=T
         wScrn=  0.000000 ICntrl=       500 IOpCl=  0 I1Cent=   200000004 NGrid=           0
         NMat0=    1 NMatS0=      1 NMatT0=    0 NMatD0=    1 NMtDS0=    0 NMtDT0=    0
 Petite list used in FoFCou.
 Keep R1 ints in memory in symmetry-blocked form, NReq=69339737.
 Requested convergence on RMS density matrix=1.00D-08 within 128 cycles.
 Requested convergence on MAX density matrix=1.00D-06.
 Requested convergence on             energy=1.00D-06.
 No special actions if energy rises.
 SCF Done:  E(RHF) =  -200.127151640     A.U. after    9 cycles
            NFock=  9  Conv=0.45D-08     -V/T= 2.0010
 ExpMin= 2.53D-02 ExpMax= 1.95D+04 ExpMxC= 6.65D+02 IAcc=3 IRadAn=         5 AccDes= 0.00D+00
 HarFok:  IExCor=  205 AccDes= 0.00D+00 IRadAn=         5 IDoV=-2 UseB2=F ITyADJ=14
 ICtDFT= 12500011 ScaDFX=  1.000000  1.000000  1.000000  1.000000
 Range of M.O.s used for correlation:     3   138
 NBasis=   138 NAE=    10 NBE=    10 NFC=     2 NFV=     0
 NROrb=    136 NOA=     8 NOB=     8 NVA=   128 NVB=   128

 **** Warning!!: The largest alpha MO coefficient is  0.25576593D+02

 Fully direct method using O(ONN) memory.
 JobTyp=1 Pass  1:  I=   3 to  10 NPSUse= 28 ParTrn=T ParDer=T DoDerP=T.
 Spin components of T(2) and E(2):
     alpha-alpha T2 =       0.1398900109D-01 E2=     -0.7178094429D-01
     alpha-beta  T2 =       0.7618541051D-01 E2=     -0.4184457557D+00
     beta-beta   T2 =       0.1398900109D-01 E2=     -0.7178094429D-01
 ANorm=    0.1050791803D+01
 E2 =    -0.5620076443D+00 EUMP2 =    -0.20068915928464D+03
          IDoAtm=1111
          Differentiating once with respect to electric field.
                with respect to dipole field.
          Differentiating once with respect to nuclear coordinates.
 Keep R1 ints in memory in symmetry-blocked form, NReq=69340661.
          There are     1 degrees of freedom in the 1st order CPHF.  IDoFFX=0 NUNeed=     1.
 LinEq1:  Iter=  0 NonCon=     1 RMS=3.97D-03 Max=4.37D-02 NDo=     1
 AX will form     1 AO Fock derivatives at one time.
 LinEq1:  Iter=  1 NonCon=     1 RMS=5.79D-04 Max=6.02D-03 NDo=     1
 LinEq1:  Iter=  2 NonCon=     1 RMS=2.09D-04 Max=1.61D-03 NDo=     1
 LinEq1:  Iter=  3 NonCon=     1 RMS=4.39D-05 Max=3.75D-04 NDo=     1
 LinEq1:  Iter=  4 NonCon=     1 RMS=5.91D-06 Max=4.14D-05 NDo=     1
 LinEq1:  Iter=  5 NonCon=     1 RMS=8.42D-07 Max=6.18D-06 NDo=     1
 LinEq1:  Iter=  6 NonCon=     1 RMS=2.75D-07 Max=3.32D-06 NDo=     1
 LinEq1:  Iter=  7 NonCon=     1 RMS=7.29D-08 Max=5.17D-07 NDo=     1
 LinEq1:  Iter=  8 NonCon=     1 RMS=1.04D-08 Max=7.57D-08 NDo=     1
 LinEq1:  Iter=  9 NonCon=     1 RMS=1.47D-09 Max=1.24D-08 NDo=     1
 LinEq1:  Iter= 10 NonCon=     1 RMS=3.01D-10 Max=2.31D-09 NDo=     1
 LinEq1:  Iter= 11 NonCon=     0 RMS=4.98D-11 Max=3.99D-10 NDo=     1
 Linear equations converged to 1.000D-10 1.000D-09 after    11 iterations.
 End of Minotr F.D. properties file   721 does not exist.
 End of Minotr F.D. properties file   722 does not exist.
 End of Minotr F.D. properties file   788 does not exist.
 Calling FoFJK, ICntrl=  10002127 FMM=F ISym2X=1 I1Cent= 0 IOpClX= 0 NMat=1 NMatS=1 NMatT=0.
 ***** Axes restored to original set *****
 -------------------------------------------------------------------
 Center     Atomic                   Forces (Hartrees/Bohr)
 Number     Number              X              Y              Z
 -------------------------------------------------------------------
      1        9           0.000056079   -0.000000000    0.000887113
      2        1          -0.000041279    0.000000000   -0.001523274
      3        9          -0.000345234    0.000000000    0.000784542
      4        1           0.000330434   -0.000000000   -0.000148381
 -------------------------------------------------------------------
 Cartesian Forces:  Max     0.001523274 RMS     0.000575766
 -----------------------------------------------------------------------------------------------
                       Internal Coordinate Forces (Hartree/Bohr or radian)
  Cent   Atom   N1       Length/X         N2         Alpha/Y        N3         Beta/Z          J
 -----------------------------------------------------------------------------------------------
      1  F 
         X        1   0.000000(     1)
      2  H        1  -0.000041(     2)      2   0.002671(     6)
      3  F        1  -0.000015(     3)      2  -0.002671(     7)      3   0.000000(    10)     0
         X        4   0.000000(     4)      1   0.000000(     8)      2  -0.000000(    11)     0
      4  H        4   0.000007(     5)      5  -0.000000(     9)      1   0.000633(    12)     0
 -----------------------------------------------------------------------------------------------
 Internal  Forces:  Max     0.002671303 RMS     0.001105832

 GradGradGradGradGradGradGradGradGradGradGradGradGradGradGradGradGradGrad
 Berny optimization.
 Search for a local minimum.
 Step number   4 out of a maximum of  100
 All quantities printed in internal units (Hartrees-Bohrs-Radians)
 Update second derivatives using D2CorN and points    1    2    3    4
 DE= -5.14D-05 DEPred=-5.09D-05 R= 1.01D+00
 TightC=F SS=  1.41D+00  RLast= 5.38D-02 DXNew= 5.0454D-01 1.6127D-01
 Trust test= 1.01D+00 RLast= 5.38D-02 DXMaxT set to 3.00D-01
 The second derivative matrix:
                          R1        D1        Rah       Rab
           R1           0.63804
           D1           0.00332   0.01231
           Rah          0.00003   0.00138   0.63017
           Rab          0.00009   0.00050   0.00015   0.02435
 ITU=  1  1  1  0
     Eigenvalues ---    0.01227   0.02437   0.63017   0.63805
 RFO step:  Lambda=-1.72976257D-08 EMin= 1.22684976D-02
 Quartic linear search produced a step of  1.07937.
 Variable       Old X    -DE/DX   Delta X   Delta X   Delta X     New X
                                 (Linear)    (Quad)   (Total)
    R1        1.74794   0.00001  -0.00038   0.00006  -0.00032   1.74762
    D1        2.01095   0.00063   0.05798   0.00003   0.05801   2.06896
   Rah        1.75366  -0.00004  -0.00016  -0.00007  -0.00023   1.75343
   Rab        5.19417  -0.00001  -0.00220   0.00069  -0.00151   5.19267
         Item               Value     Threshold  Converged?
 Maximum Force            0.000633     0.000015     NO 
 RMS     Force            0.000317     0.000010     NO 
 Maximum Displacement     0.058007     0.000060     NO 
 RMS     Displacement     0.029014     0.000040     NO 
 Predicted change in Energy=-1.608660D-05
 GradGradGradGradGradGradGradGradGradGradGradGradGradGradGradGradGradGrad

 ---------------------------------------------------------------------------------------------------
                            Z-MATRIX (ANGSTROMS AND DEGREES)
   CD    Cent   Atom    N1       Length/X        N2       Alpha/Y        N3        Beta/Z          J
 ---------------------------------------------------------------------------------------------------
      1      1  F 
      2         X        1   1.000000(     1)
      3      2  H        1   0.927874(     2)      2   90.000(     6)
      4      3  F        1   2.747842(     3)      2   90.000(     7)      3    0.000(    10)      0
      5         X        4   1.000000(     4)      1   90.000(     8)      2   90.000(    11)      0
      6      4  H        4   0.924800(     5)      5   90.000(     9)      1  118.543(    12)      0
 ---------------------------------------------------------------------------------------------------
                         Z-Matrix orientation:                         
 ---------------------------------------------------------------------
 Center     Atomic      Atomic             Coordinates (Angstroms)
 Number     Number       Type             X           Y           Z
 ---------------------------------------------------------------------
      1          9           0        0.000000    0.000000    0.000000
      2         -1           0        0.000000    0.000000    1.000000
      3          1           0        0.927874    0.000000    0.000000
      4          9           0        2.747842    0.000000    0.000000
      5         -1           0        2.747842   -1.000000    0.000000
      6          1           0        3.189722   -0.000000    0.812402
 ---------------------------------------------------------------------
                    Distance matrix (angstroms):
                    1          2          3          4          5
     1  F    0.000000
     2  X    1.000000   0.000000
     3  H    0.927874   1.364166   0.000000
     4  F    2.747842   2.924147   1.819968   0.000000
     5  X    2.924147   3.090410   2.076604   1.000000   0.000000
     6  H    3.291553   3.195234   2.403321   0.924800   1.362077
                    6
     6  H    0.000000
 Stoichiometry    F2H2
 Framework group  CS[SG(F2H2)]
 Deg. of freedom     5
 Full point group                 CS      NOp   2
 Largest Abelian subgroup         CS      NOp   2
 Largest concise Abelian subgroup C1      NOp   1
                         Standard orientation:                         
 ---------------------------------------------------------------------
 Center     Atomic      Atomic             Coordinates (Angstroms)
 Number     Number       Type             X           Y           Z
 ---------------------------------------------------------------------
      1          9           0        0.040620    1.442409    0.000000
      2          1           0        0.040620    0.514535    0.000000
      3          9           0        0.040620   -1.305433    0.000000
      4          1           0       -0.771782   -1.747313    0.000000
 ---------------------------------------------------------------------
 Rotational constants (GHZ):         815.2764804           6.7178434           6.6629410
 Standard basis: Aug-CC-pVTZ (5D, 7F)
 There are   110 symmetry adapted cartesian basis functions of A'  symmetry.
 There are    50 symmetry adapted cartesian basis functions of A"  symmetry.
 There are    92 symmetry adapted basis functions of A'  symmetry.
 There are    46 symmetry adapted basis functions of A"  symmetry.
   138 basis functions,   198 primitive gaussians,   160 cartesian basis functions
    10 alpha electrons       10 beta electrons
       nuclear repulsion energy        30.1655422273 Hartrees.
 NAtoms=    4 NActive=    4 NUniq=    4 SFac= 1.00D+00 NAtFMM=   60 NAOKFM=F Big=F
 Integral buffers will be    131072 words long.
 Raffenetti 1 integral format.
 Two-electron integral symmetry is turned on.
 One-electron integrals computed using PRISM.
 NBasis=   138 RedAO= T EigKep=  1.51D-04  NBF=    92    46
 NBsUse=   138 1.00D-06 EigRej= -1.00D+00 NBFU=    92    46
 Initial guess from the checkpoint file:  "/gscratch/scrubbed/gds001/Gau-30304.chk"
 B after Tr=    -0.000000    0.000000   -0.000000
         Rot=    0.999999    0.000000   -0.000000   -0.001043 Ang=  -0.12 deg.
 Initial guess orbital symmetries:
       Occupied  (A') (A') (A') (A') (A') (A') (A") (A') (A') (A")
       Virtual   (A') (A') (A') (A') (A") (A') (A') (A") (A') (A')
                 (A") (A') (A') (A") (A') (A') (A') (A') (A') (A')
                 (A") (A') (A") (A") (A') (A') (A") (A') (A') (A")
                 (A') (A") (A') (A") (A') (A') (A') (A") (A') (A')
                 (A") (A') (A') (A') (A") (A') (A") (A') (A") (A')
                 (A') (A') (A') (A') (A') (A") (A") (A') (A') (A")
                 (A") (A') (A') (A") (A') (A') (A') (A") (A") (A')
                 (A") (A') (A') (A') (A') (A") (A") (A') (A') (A")
                 (A") (A') (A') (A") (A') (A') (A") (A') (A") (A")
                 (A') (A') (A') (A') (A') (A') (A") (A') (A") (A')
                 (A') (A') (A") (A') (A") (A') (A") (A') (A") (A')
                 (A") (A') (A") (A') (A") (A') (A') (A") (A') (A")
                 (A') (A') (A") (A') (A') (A') (A') (A')
 ExpMin= 2.53D-02 ExpMax= 1.95D+04 ExpMxC= 6.65D+02 IAcc=3 IRadAn=         5 AccDes= 0.00D+00
 Harris functional with IExCor=  205 and IRadAn=       5 diagonalized for initial guess.
 HarFok:  IExCor=  205 AccDes= 0.00D+00 IRadAn=         5 IDoV= 1 UseB2=F ITyADJ=14
 ICtDFT=  3500011 ScaDFX=  1.000000  1.000000  1.000000  1.000000
 FoFCou: FMM=F IPFlag=           0 FMFlag=      100000 FMFlg1=           0
         NFxFlg=           0 DoJE=T BraDBF=F KetDBF=T FulRan=T
         wScrn=  0.000000 ICntrl=       500 IOpCl=  0 I1Cent=   200000004 NGrid=           0
         NMat0=    1 NMatS0=      1 NMatT0=    0 NMatD0=    1 NMtDS0=    0 NMtDT0=    0
 Petite list used in FoFCou.
 Keep R1 ints in memory in symmetry-blocked form, NReq=69339737.
 Requested convergence on RMS density matrix=1.00D-08 within 128 cycles.
 Requested convergence on MAX density matrix=1.00D-06.
 Requested convergence on             energy=1.00D-06.
 No special actions if energy rises.
 SCF Done:  E(RHF) =  -200.127249253     A.U. after    9 cycles
            NFock=  9  Conv=0.49D-08     -V/T= 2.0010
 ExpMin= 2.53D-02 ExpMax= 1.95D+04 ExpMxC= 6.65D+02 IAcc=3 IRadAn=         5 AccDes= 0.00D+00
 HarFok:  IExCor=  205 AccDes= 0.00D+00 IRadAn=         5 IDoV=-2 UseB2=F ITyADJ=14
 ICtDFT= 12500011 ScaDFX=  1.000000  1.000000  1.000000  1.000000
 Range of M.O.s used for correlation:     3   138
 NBasis=   138 NAE=    10 NBE=    10 NFC=     2 NFV=     0
 NROrb=    136 NOA=     8 NOB=     8 NVA=   128 NVB=   128

 **** Warning!!: The largest alpha MO coefficient is  0.25643542D+02

 Fully direct method using O(ONN) memory.
 JobTyp=1 Pass  1:  I=   3 to  10 NPSUse= 28 ParTrn=T ParDer=T DoDerP=T.
 Spin components of T(2) and E(2):
     alpha-alpha T2 =       0.1398292660D-01 E2=     -0.7176917425D-01
     alpha-beta  T2 =       0.7615483394D-01 E2=     -0.4183897249D+00
     beta-beta   T2 =       0.1398292660D-01 E2=     -0.7176917425D-01
 ANorm=    0.1050771472D+01
 E2 =    -0.5619280734D+00 EUMP2 =    -0.20068917732671D+03
          IDoAtm=1111
          Differentiating once with respect to electric field.
                with respect to dipole field.
          Differentiating once with respect to nuclear coordinates.
 Keep R1 ints in memory in symmetry-blocked form, NReq=69340661.
          There are     1 degrees of freedom in the 1st order CPHF.  IDoFFX=0 NUNeed=     1.
 LinEq1:  Iter=  0 NonCon=     1 RMS=3.96D-03 Max=4.36D-02 NDo=     1
 AX will form     1 AO Fock derivatives at one time.
 LinEq1:  Iter=  1 NonCon=     1 RMS=5.76D-04 Max=5.90D-03 NDo=     1
 LinEq1:  Iter=  2 NonCon=     1 RMS=2.07D-04 Max=1.54D-03 NDo=     1
 LinEq1:  Iter=  3 NonCon=     1 RMS=4.35D-05 Max=3.68D-04 NDo=     1
 LinEq1:  Iter=  4 NonCon=     1 RMS=5.78D-06 Max=4.00D-05 NDo=     1
 LinEq1:  Iter=  5 NonCon=     1 RMS=8.53D-07 Max=6.17D-06 NDo=     1
 LinEq1:  Iter=  6 NonCon=     1 RMS=2.95D-07 Max=3.53D-06 NDo=     1
 LinEq1:  Iter=  7 NonCon=     1 RMS=7.21D-08 Max=5.05D-07 NDo=     1
 LinEq1:  Iter=  8 NonCon=     1 RMS=1.04D-08 Max=7.28D-08 NDo=     1
 LinEq1:  Iter=  9 NonCon=     1 RMS=1.46D-09 Max=1.19D-08 NDo=     1
 LinEq1:  Iter= 10 NonCon=     1 RMS=3.01D-10 Max=2.11D-09 NDo=     1
 LinEq1:  Iter= 11 NonCon=     0 RMS=4.89D-11 Max=4.08D-10 NDo=     1
 Linear equations converged to 1.000D-10 1.000D-09 after    11 iterations.
 End of Minotr F.D. properties file   721 does not exist.
 End of Minotr F.D. properties file   722 does not exist.
 End of Minotr F.D. properties file   788 does not exist.
 Calling FoFJK, ICntrl=  10002127 FMM=F ISym2X=1 I1Cent= 0 IOpClX= 0 NMat=1 NMatS=1 NMatT=0.
 ***** Axes restored to original set *****
 -------------------------------------------------------------------
 Center     Atomic                   Forces (Hartrees/Bohr)
 Number     Number              X              Y              Z
 -------------------------------------------------------------------
      1        9           0.000010904    0.000000000    0.000736839
      2        1          -0.000047361   -0.000000000   -0.001113394
      3        9           0.000030926    0.000000000    0.000370073
      4        1           0.000005531    0.000000000    0.000006483
 -------------------------------------------------------------------
 Cartesian Forces:  Max     0.001113394 RMS     0.000400304
 -----------------------------------------------------------------------------------------------
                       Internal Coordinate Forces (Hartree/Bohr or radian)
  Cent   Atom   N1       Length/X         N2         Alpha/Y        N3         Beta/Z          J
 -----------------------------------------------------------------------------------------------
      1  F 
         X        1   0.000000(     1)
      2  H        1  -0.000047(     2)      2   0.001952(     6)
      3  F        1   0.000036(     3)      2  -0.001952(     7)      3  -0.000000(    10)     0
         X        4   0.000000(     4)      1   0.000000(     8)      2  -0.000000(    11)     0
      4  H        4   0.000008(     5)      5   0.000000(     9)      1   0.000003(    12)     0
 -----------------------------------------------------------------------------------------------
 Internal  Forces:  Max     0.001952256 RMS     0.000797195

 GradGradGradGradGradGradGradGradGradGradGradGradGradGradGradGradGradGrad
 Berny optimization.
 Search for a local minimum.
 Step number   5 out of a maximum of  100
 All quantities printed in internal units (Hartrees-Bohrs-Radians)
 Update second derivatives using D2CorN and points    4    5
 DE= -1.80D-05 DEPred=-1.61D-05 R= 1.12D+00
 TightC=F SS=  1.41D+00  RLast= 5.80D-02 DXNew= 5.0454D-01 1.7408D-01
 Trust test= 1.12D+00 RLast= 5.80D-02 DXMaxT set to 3.00D-01
 The second derivative matrix:
                          R1        D1        Rah       Rab
           R1           0.63803
           D1           0.00341   0.01090
           Rah          0.00002   0.00200   0.63016
           Rab          0.00009   0.00014   0.00014   0.02437
 ITU=  1  1  1  1  0
     Eigenvalues ---    0.01087   0.02437   0.63017   0.63805
 RFO step:  Lambda=-5.88745989D-08 EMin= 1.08713070D-02
 Quartic linear search produced a step of  0.00386.
 Variable       Old X    -DE/DX   Delta X   Delta X   Delta X     New X
                                 (Linear)    (Quad)   (Total)
    R1        1.74762   0.00001  -0.00000   0.00001   0.00001   1.74763
    D1        2.06896   0.00000   0.00022   0.00006   0.00029   2.06925
   Rah        1.75343  -0.00005  -0.00000  -0.00008  -0.00008   1.75335
   Rab        5.19267   0.00004  -0.00001   0.00150   0.00150   5.19417
         Item               Value     Threshold  Converged?
 Maximum Force            0.000047     0.000015     NO 
 RMS     Force            0.000030     0.000010     NO 
 Maximum Displacement     0.001498     0.000060     NO 
 RMS     Displacement     0.000764     0.000040     NO 
 Predicted change in Energy=-2.952717D-08
 GradGradGradGradGradGradGradGradGradGradGradGradGradGradGradGradGradGrad

 ---------------------------------------------------------------------------------------------------
                            Z-MATRIX (ANGSTROMS AND DEGREES)
   CD    Cent   Atom    N1       Length/X        N2       Alpha/Y        N3        Beta/Z          J
 ---------------------------------------------------------------------------------------------------
      1      1  F 
      2         X        1   1.000000(     1)
      3      2  H        1   0.927833(     2)      2   90.000(     6)
      4      3  F        1   2.748635(     3)      2   90.000(     7)      3    0.000(    10)      0
      5         X        4   1.000000(     4)      1   90.000(     8)      2   90.000(    11)      0
      6      4  H        4   0.924806(     5)      5   90.000(     9)      1  118.559(    12)      0
 ---------------------------------------------------------------------------------------------------
                         Z-Matrix orientation:                         
 ---------------------------------------------------------------------
 Center     Atomic      Atomic             Coordinates (Angstroms)
 Number     Number       Type             X           Y           Z
 ---------------------------------------------------------------------
      1          9           0        0.000000    0.000000    0.000000
      2         -1           0        0.000000    0.000000    1.000000
      3          1           0        0.927833    0.000000    0.000000
      4          9           0        2.748635    0.000000    0.000000
      5         -1           0        2.748635   -1.000000    0.000000
      6          1           0        3.190751   -0.000000    0.812280
 ---------------------------------------------------------------------
                    Distance matrix (angstroms):
                    1          2          3          4          5
     1  F    0.000000
     2  X    1.000000   0.000000
     3  H    0.927833   1.364139   0.000000
     4  F    2.748635   2.924892   1.820802   0.000000
     5  X    2.924892   3.091115   2.077334   1.000000   0.000000
     6  H    3.292521   3.196269   2.404287   0.924806   1.362081
                    6
     6  H    0.000000
 Stoichiometry    F2H2
 Framework group  CS[SG(F2H2)]
 Deg. of freedom     5
 Full point group                 CS      NOp   2
 Largest Abelian subgroup         CS      NOp   2
 Largest concise Abelian subgroup C1      NOp   1
                         Standard orientation:                         
 ---------------------------------------------------------------------
 Center     Atomic      Atomic             Coordinates (Angstroms)
 Number     Number       Type             X           Y           Z
 ---------------------------------------------------------------------
      1          9           0        0.040614    1.442815   -0.000000
      2          1           0        0.040614    0.514982   -0.000000
      3          9           0        0.040614   -1.305820    0.000000
      4          1           0       -0.771666   -1.747936    0.000000
 ---------------------------------------------------------------------
 Rotational constants (GHZ):         815.5256272           6.7139084           6.6590867
 Standard basis: Aug-CC-pVTZ (5D, 7F)
 There are   110 symmetry adapted cartesian basis functions of A'  symmetry.
 There are    50 symmetry adapted cartesian basis functions of A"  symmetry.
 There are    92 symmetry adapted basis functions of A'  symmetry.
 There are    46 symmetry adapted basis functions of A"  symmetry.
   138 basis functions,   198 primitive gaussians,   160 cartesian basis functions
    10 alpha electrons       10 beta electrons
       nuclear repulsion energy        30.1595216758 Hartrees.
 NAtoms=    4 NActive=    4 NUniq=    4 SFac= 1.00D+00 NAtFMM=   60 NAOKFM=F Big=F
 Integral buffers will be    131072 words long.
 Raffenetti 1 integral format.
 Two-electron integral symmetry is turned on.
 One-electron integrals computed using PRISM.
 NBasis=   138 RedAO= T EigKep=  1.51D-04  NBF=    92    46
 NBsUse=   138 1.00D-06 EigRej= -1.00D+00 NBFU=    92    46
 Initial guess from the checkpoint file:  "/gscratch/scrubbed/gds001/Gau-30304.chk"
 B after Tr=     0.000000   -0.000000    0.000000
         Rot=    1.000000    0.000000   -0.000000   -0.000009 Ang=  -0.00 deg.
 Initial guess orbital symmetries:
       Occupied  (A') (A') (A') (A') (A') (A') (A") (A') (A') (A")
       Virtual   (A') (A') (A') (A') (A") (A') (A') (A") (A') (A')
                 (A") (A') (A') (A") (A') (A') (A') (A') (A') (A')
                 (A") (A') (A") (A") (A') (A') (A") (A') (A') (A")
                 (A') (A") (A') (A') (A") (A') (A') (A") (A') (A')
                 (A") (A') (A') (A') (A") (A') (A") (A') (A") (A')
                 (A') (A') (A') (A') (A') (A") (A") (A') (A') (A")
                 (A") (A') (A') (A") (A') (A') (A') (A") (A") (A')
                 (A") (A') (A') (A') (A') (A") (A") (A') (A') (A")
                 (A") (A') (A') (A") (A') (A') (A") (A') (A") (A")
                 (A') (A') (A') (A') (A') (A') (A") (A') (A") (A')
                 (A') (A') (A") (A') (A") (A') (A") (A') (A") (A")
                 (A') (A') (A") (A') (A') (A") (A') (A") (A') (A")
                 (A') (A') (A") (A') (A') (A') (A') (A')
 Keep R1 ints in memory in symmetry-blocked form, NReq=69339737.
 Requested convergence on RMS density matrix=1.00D-08 within 128 cycles.
 Requested convergence on MAX density matrix=1.00D-06.
 Requested convergence on             energy=1.00D-06.
 No special actions if energy rises.
 SCF Done:  E(RHF) =  -200.127253480     A.U. after    6 cycles
            NFock=  6  Conv=0.42D-08     -V/T= 2.0010
 ExpMin= 2.53D-02 ExpMax= 1.95D+04 ExpMxC= 6.65D+02 IAcc=3 IRadAn=         5 AccDes= 0.00D+00
 HarFok:  IExCor=  205 AccDes= 0.00D+00 IRadAn=         5 IDoV=-2 UseB2=F ITyADJ=14
 ICtDFT= 12500011 ScaDFX=  1.000000  1.000000  1.000000  1.000000
 Range of M.O.s used for correlation:     3   138
 NBasis=   138 NAE=    10 NBE=    10 NFC=     2 NFV=     0
 NROrb=    136 NOA=     8 NOB=     8 NVA=   128 NVB=   128

 **** Warning!!: The largest alpha MO coefficient is  0.25653746D+02

 Fully direct method using O(ONN) memory.
 JobTyp=1 Pass  1:  I=   3 to  10 NPSUse= 28 ParTrn=T ParDer=T DoDerP=T.
 Spin components of T(2) and E(2):
     alpha-alpha T2 =       0.1398271423D-01 E2=     -0.7176813184D-01
     alpha-beta  T2 =       0.7615473059D-01 E2=     -0.4183876303D+00
     beta-beta   T2 =       0.1398271423D-01 E2=     -0.7176813184D-01
 ANorm=    0.1050771221D+01
 E2 =    -0.5619238940D+00 EUMP2 =    -0.20068917737357D+03
          IDoAtm=1111
          Differentiating once with respect to electric field.
                with respect to dipole field.
          Differentiating once with respect to nuclear coordinates.
 Keep R1 ints in memory in symmetry-blocked form, NReq=69340661.
          There are     1 degrees of freedom in the 1st order CPHF.  IDoFFX=0 NUNeed=     1.
 LinEq1:  Iter=  0 NonCon=     1 RMS=3.96D-03 Max=4.36D-02 NDo=     1
 AX will form     1 AO Fock derivatives at one time.
 LinEq1:  Iter=  1 NonCon=     1 RMS=5.76D-04 Max=5.90D-03 NDo=     1
 LinEq1:  Iter=  2 NonCon=     1 RMS=2.07D-04 Max=1.54D-03 NDo=     1
 LinEq1:  Iter=  3 NonCon=     1 RMS=4.35D-05 Max=3.68D-04 NDo=     1
 LinEq1:  Iter=  4 NonCon=     1 RMS=5.78D-06 Max=4.00D-05 NDo=     1
 LinEq1:  Iter=  5 NonCon=     1 RMS=8.51D-07 Max=6.17D-06 NDo=     1
 LinEq1:  Iter=  6 NonCon=     1 RMS=2.94D-07 Max=3.52D-06 NDo=     1
 LinEq1:  Iter=  7 NonCon=     1 RMS=7.21D-08 Max=5.04D-07 NDo=     1
 LinEq1:  Iter=  8 NonCon=     1 RMS=1.04D-08 Max=7.27D-08 NDo=     1
[...]
                 (A') (A") (A') (A') (A") (A') (A') (A") (A') (A')
                 (A") (A') (A') (A') (A") (A') (A") (A') (A") (A')
                 (A') (A') (A') (A') (A') (A") (A") (A') (A') (A")
                 (A") (A') (A') (A") (A') (A') (A') (A") (A") (A')
                 (A") (A') (A') (A') (A') (A") (A") (A') (A') (A")
                 (A") (A') (A') (A") (A') (A') (A") (A') (A") (A")
                 (A') (A') (A') (A') (A') (A') (A") (A') (A") (A')
                 (A') (A') (A") (A') (A") (A') (A") (A') (A") (A")
                 (A') (A') (A") (A') (A') (A") (A') (A") (A') (A")
                 (A') (A') (A") (A') (A') (A') (A') (A')
 The electronic state is 1-A'.
 Alpha  occ. eigenvalues --  -26.34491 -26.27131  -1.64822  -1.57395  -0.81858
 Alpha  occ. eigenvalues --   -0.75036  -0.69648  -0.68767  -0.62435  -0.62418
 Alpha virt. eigenvalues --    0.01850   0.06284   0.12936   0.15855   0.16707
 Alpha virt. eigenvalues --    0.18200   0.21260   0.23619   0.25548   0.26026
 Alpha virt. eigenvalues --    0.27785   0.29370   0.34320   0.36259   0.40346
 Alpha virt. eigenvalues --    0.43381   0.44788   0.62140   0.66265   0.70066
 Alpha virt. eigenvalues --    0.73636   0.77159   0.80234   0.82644   0.83322
 Alpha virt. eigenvalues --    0.87491   0.88776   0.90842   0.95135   1.00266
 Alpha virt. eigenvalues --    1.05033   1.06447   1.08015   1.10177   1.10761
 Alpha virt. eigenvalues --    1.11228   1.18177   1.18572   1.20665   1.21688
 Alpha virt. eigenvalues --    1.22424   1.30826   1.32796   1.49624   1.52842
 Alpha virt. eigenvalues --    1.60013   1.65871   1.79849   1.85539   1.88841
 Alpha virt. eigenvalues --    2.04373   2.33194   2.39708   2.64473   2.80639
 Alpha virt. eigenvalues --    2.83153   2.83187   2.83502   2.85108   2.87220
 Alpha virt. eigenvalues --    2.95498   2.95498   2.98436   3.00825   3.01787
 Alpha virt. eigenvalues --    3.08327   3.09614   3.09999   3.22165   3.22426
 Alpha virt. eigenvalues --    3.26519   3.28714   3.33877   3.52343   3.56791
 Alpha virt. eigenvalues --    3.58263   3.73840   3.79076   4.03123   4.15064
 Alpha virt. eigenvalues --    4.18681   4.18799   4.22349   4.29944   4.30890
 Alpha virt. eigenvalues --    4.39981   4.43480   4.57298   4.82859   4.84956
 Alpha virt. eigenvalues --    4.87398   5.02428   5.08501   5.51136   5.63912
 Alpha virt. eigenvalues --    5.81612   6.01574   6.07212   6.11903   6.31097
 Alpha virt. eigenvalues --    7.60409   7.72243   8.83541   8.85372   8.85373
 Alpha virt. eigenvalues --    8.86656   8.97258   8.97598   8.99271   9.19055
 Alpha virt. eigenvalues --    9.19900   9.20795   9.32747   9.35574   9.38216
 Alpha virt. eigenvalues --    9.38761   9.40403   9.40913   9.41006   9.53923
 Alpha virt. eigenvalues --    9.56848   9.61912   9.67240   9.69394   9.90983
 Alpha virt. eigenvalues --    9.95736  14.53758  15.98304
          Condensed to atoms (all electrons):
               1          2          3          4
     1  F    9.298173   0.141514  -0.025969   0.001533
     2  H    0.141514   0.476793  -0.045941  -0.002678
     3  F   -0.025969  -0.045941   9.288466   0.196649
     4  H    0.001533  -0.002678   0.196649   0.406352
 Mulliken charges:
               1
     1  F   -0.415250
     2  H    0.430311
     3  F   -0.413205
     4  H    0.398144
 Sum of Mulliken charges =   0.00000
 Mulliken charges with hydrogens summed into heavy atoms:
               1
     1  F    0.015061
     3  F   -0.015061
 APT charges:
               1
     1  F   -0.450173
     2  H    0.462625
     3  F   -0.422538
     4  H    0.410086
 Sum of APT charges =   0.00000
 APT charges with hydrogens summed into heavy atoms:
               1
     1  F    0.012452
     3  F   -0.012452
 Electronic spatial extent (au):  <R**2>=            159.8161
 Charge=             -0.0000 electrons
 Dipole moment (field-independent basis, Debye):
    X=             -1.7324    Y=             -3.3382    Z=             -0.0000  Tot=              3.7610
 Quadrupole moment (field-independent basis, Debye-Ang):
   XX=             -9.5129   YY=            -11.2648   ZZ=            -11.3744
   XY=              3.2816   XZ=             -0.0000   YZ=              0.0000
 Traceless Quadrupole moment (field-independent basis, Debye-Ang):
   XX=              1.2045   YY=             -0.5475   ZZ=             -0.6570
   XY=              3.2816   XZ=             -0.0000   YZ=              0.0000
 Octapole moment (field-independent basis, Debye-Ang**2):
  XXX=             -1.6982  YYY=            -13.5800  ZZZ=             -0.0000  XYY=             -6.4138
  XXY=             -3.6328  XXZ=             -0.0000  XZZ=             -0.1271  YZZ=             -0.4405
  YYZ=             -0.0000  XYZ=             -0.0000
 Hexadecapole moment (field-independent basis, Debye-Ang**3):
 XXXX=             -7.1532 YYYY=           -120.0559 ZZZZ=             -7.5167 XXXY=              0.8612
 XXXZ=             -0.0000 YYYX=              9.5775 YYYZ=              0.0000 ZZZX=             -0.0000
 ZZZY=             -0.0000 XXYY=            -18.2393 XXZZ=             -2.6381 YYZZ=            -23.6342
 XXYZ=              0.0000 YYXZ=             -0.0000 ZZXY=             -0.5088
 N-N= 3.015121710739D+01 E-N=-5.404081924735D+02  KE= 1.999312579600D+02
 Symmetry A'   KE= 1.874090759456D+02
 Symmetry A"   KE= 1.252218201439D+01
  Exact polarizability:  10.525   0.667  12.998   0.000  -0.000   9.587
 Approx polarizability:   8.076   0.585   8.912   0.000  -0.000   7.026
 Calling FoFJK, ICntrl=  10100127 FMM=F ISym2X=1 I1Cent= 0 IOpClX= 0 NMat=1 NMatS=1 NMatT=0.
 Full mass-weighted force constant matrix:
 Low frequencies ---  -42.5153   -1.2554   -0.1445    0.0016    0.0018    0.0019
 Low frequencies ---  158.5351  219.7957  468.4331
 Diagonal vibrational polarizability:
       13.5734687      68.3598584      16.7893994
 Harmonic frequencies (cm**-1), IR intensities (KM/Mole), Raman scattering
 activities (A**4/AMU), depolarization ratios for plane and unpolarized
 incident light, reduced masses (AMU), force constants (mDyne/A),
 and normal coordinates:
                      1                      2                      3
                     A'                     A'                     A"
 Frequencies --    158.5313               219.7954               466.4986
 Red. masses --      4.0733                 1.2714                 1.0358
 Frc consts  --      0.0603                 0.0362                 0.1328
 IR Inten    --      3.6402               111.1762               135.7697
  Atom  AN      X      Y      Z        X      Y      Z        X      Y      Z
     1   9     0.02   0.30  -0.00    -0.03   0.05   0.00    -0.00  -0.00  -0.04
     2   1    -0.23   0.31   0.00     0.45   0.05  -0.00     0.00  -0.00   1.00
     3   9    -0.02  -0.28  -0.00     0.03  -0.10   0.00     0.00   0.00  -0.02
     4   1     0.26  -0.78   0.00    -0.44   0.76  -0.00    -0.00   0.00  -0.00
                      4                      5                      6
                     A'                     A'                     A'
 Frequencies --    568.7670              3991.0272              4083.1471
 Red. masses --      1.0475                 1.0585                 1.0580
 Frc consts  --      0.1996                 9.9340                10.3927
 IR Inten    --    180.9845               502.3982               123.8215
  Atom  AN      X      Y      Z        X      Y      Z        X      Y      Z
     1   9    -0.02  -0.00  -0.00    -0.00  -0.05   0.00     0.00   0.01   0.00
     2   1     0.91  -0.00   0.00    -0.00   0.98  -0.00    -0.00  -0.17  -0.00
     3   9    -0.03   0.02  -0.00    -0.01  -0.00   0.00    -0.05  -0.02   0.00
     4   1     0.18  -0.37   0.00     0.15   0.09   0.00     0.86   0.47   0.00

 -------------------
 - Thermochemistry -
 -------------------
 Temperature   298.150 Kelvin.  Pressure   1.00000 Atm.
 Atom     1 has atomic number  9 and mass  18.99840
 Atom     2 has atomic number  1 and mass   1.00783
 Atom     3 has atomic number  9 and mass  18.99840
 Atom     4 has atomic number  1 and mass   1.00783
 Molecular mass:    40.01246 amu.
 Principal axes and moments of inertia in atomic units:
                           1         2         3
     Eigenvalues --     2.21219 269.02077 271.23296
           X            0.01953   0.99981   0.00000
           Y            0.99981  -0.01953   0.00000
           Z           -0.00000  -0.00000   1.00000
 This molecule is an asymmetric top.
 Rotational symmetry number  1.
 Rotational temperatures (Kelvin)     39.15296     0.32196     0.31933
 Rotational constants (GHZ):         815.81525     6.70856     6.65384
 Zero-point vibrational energy      56749.4 (Joules/Mol)
                                   13.56344 (Kcal/Mol)
 Warning -- explicit consideration of   4 degrees of freedom as
           vibrations may cause significant error
 Vibrational temperatures:    228.09   316.24   671.19   818.33  5742.20
          (Kelvin)           5874.74
 
 Zero-point correction=                           0.021615 (Hartree/Particle)
 Thermal correction to Energy=                    0.026034
 Thermal correction to Enthalpy=                  0.026979
 Thermal correction to Gibbs Free Energy=        -0.002711
 Sum of electronic and zero-point Energies=           -200.667563
 Sum of electronic and thermal Energies=              -200.663143
 Sum of electronic and thermal Enthalpies=            -200.662199
 Sum of electronic and thermal Free Energies=         -200.691889
 
                     E (Thermal)             CV                S
                      KCal/Mol        Cal/Mol-Kelvin    Cal/Mol-Kelvin
 Total                   16.337             12.089             62.488
 Electronic               0.000              0.000              0.000
 Translational            0.889              2.981             36.988
 Rotational               0.889              2.981             19.718
 Vibrational             14.559              6.127              5.782
 Vibration     1          0.621              1.893              2.567
 Vibration     2          0.647              1.811              1.961
 Vibration     3          0.824              1.324              0.747
 Vibration     4          0.925              1.099              0.507
                       Q            Log10(Q)             Ln(Q)
 Total Bot       0.176659D+02          1.247136          2.871636
 Total V=0       0.154600D+12         11.189209         25.764106
 Vib (Bot)       0.390452D-09         -9.408432        -21.663716
 Vib (Bot)    1  0.127581D+01          0.105787          0.243584
 Vib (Bot)    2  0.900021D+00         -0.045747         -0.105337
 Vib (Bot)    3  0.362639D+00         -0.440525         -1.014347
 Vib (Bot)    4  0.270924D+00         -0.567153         -1.305918
 Vib (V=0)       0.341697D+01          0.533641          1.228754
 Vib (V=0)    1  0.187029D+01          0.271909          0.626094
 Vib (V=0)    2  0.152958D+01          0.184573          0.424994
 Vib (V=0)    3  0.111766D+01          0.048311          0.111240
 Vib (V=0)    4  0.106868D+01          0.028849          0.066426
 Electronic      0.100000D+01          0.000000          0.000000
 Translational   0.994825D+07          6.997747         16.112907
 Rotational      0.454801D+04          3.657821          8.422445
 ***** Axes restored to original set *****
 -------------------------------------------------------------------
 Center     Atomic                   Forces (Hartrees/Bohr)
 Number     Number              X              Y              Z
 -------------------------------------------------------------------
      1        9          -0.000000042    0.000000000    0.000735271
      2        1           0.000000046   -0.000000000   -0.001109749
      3        9          -0.000000062    0.000000000    0.000374517
      4        1           0.000000057   -0.000000000   -0.000000039
 -------------------------------------------------------------------
 Cartesian Forces:  Max     0.001109749 RMS     0.000399211
 -----------------------------------------------------------------------------------------------
                       Internal Coordinate Forces (Hartree/Bohr or radian)
  Cent   Atom   N1       Length/X         N2         Alpha/Y        N3         Beta/Z          J
 -----------------------------------------------------------------------------------------------
      1  F 
         X        1   0.000000(     1)
      2  H        1   0.000000(     2)      2   0.001946(     6)
      3  F        1  -0.000000(     3)      2  -0.001946(     7)      3  -0.000000(    10)     0
         X        4   0.000000(     4)      1  -0.000000(     8)      2  -0.000000(    11)     0
      4  H        4  -0.000000(     5)      5  -0.000000(     9)      1   0.000000(    12)     0
 -----------------------------------------------------------------------------------------------
 Internal  Forces:  Max     0.001945766 RMS     0.000794352

 GradGradGradGradGradGradGradGradGradGradGradGradGradGradGradGradGradGrad
 Berny optimization.
 Search for a local minimum.
 Step number   1 out of a maximum of    2
 All quantities printed in internal units (Hartrees-Bohrs-Radians)
 Second derivative matrix not updated -- analytic derivatives used.
 The second derivative matrix:
                          R1        D1        Rah       Rab
           R1           0.60319
           D1           0.00324   0.01012
           Rah         -0.00470   0.00274   0.57761
           Rab          0.00222  -0.00079   0.00075   0.01037
 ITU=  0
     Eigenvalues ---    0.00941   0.01104   0.57680   0.60405
 Angle between quadratic step and forces=  21.53 degrees.
 Linear search not attempted -- first point.
 Variable       Old X    -DE/DX   Delta X   Delta X   Delta X     New X
                                 (Linear)    (Quad)   (Total)
    R1        1.74761  -0.00000   0.00000  -0.00000  -0.00000   1.74761
    D1        2.06955   0.00000   0.00000   0.00001   0.00001   2.06957
   Rah        1.75334   0.00000   0.00000   0.00000   0.00000   1.75334
   Rab        5.19622  -0.00000   0.00000   0.00000   0.00000   5.19622
         Item               Value     Threshold  Converged?
 Maximum Force            0.000000     0.000015     YES
 RMS     Force            0.000000     0.000010     YES
 Maximum Displacement     0.000012     0.000060     YES
 RMS     Displacement     0.000006     0.000040     YES
 Predicted change in Energy=-7.153640D-13
 Optimization completed.
    -- Stationary point found.
                       ----------------------------
                       !   Optimized Parameters   !
                       ! (Angstroms and Degrees)  !
 ----------------------                            ----------------------
 !      Name          Value   Derivative information (Atomic Units)     !
 ------------------------------------------------------------------------
 !       R1          0.9248   -DE/DX =    0.0                           !
 !       D1        118.5767   -DE/DX =    0.0                           !
 !       Rah         0.9278   -DE/DX =    0.0                           !
 !       Rab         2.7497   -DE/DX =    0.0                           !
 ------------------------------------------------------------------------
 GradGradGradGradGradGradGradGradGradGradGradGradGradGradGradGradGradGrad


 ----------------------------------------------------------------------

 Electric dipole moment (input orientation):
 (Debye = 10**-18 statcoulomb cm , SI units = C m)
                  (au)            (Debye)         (10**-30 SI)
   Tot        0.140832D+01      0.357959D+01      0.119402D+02
   x          0.125488D+01      0.318958D+01      0.106393D+02
   y          0.000000D+00      0.000000D+00      0.000000D+00
   z          0.639251D+00      0.162481D+01      0.541980D+01

 Dipole polarizability, Alpha (input orientation).
 (esu units = cm**3 , SI units = C**2 m**2 J**-1)
 Alpha(0;0):
               (au)            (10**-24 esu)      (10**-40 SI)
   iso        0.110367D+02      0.163547D+01      0.181970D+01
   aniso      0.326307D+01      0.483537D+00      0.538007D+00
   xx         0.129981D+02      0.192611D+01      0.214309D+01
   yx         0.000000D+00      0.000000D+00      0.000000D+00
   yy         0.958729D+01      0.142069D+01      0.158073D+01
   zx         0.666556D+00      0.987734D-01      0.109900D+00
   zy         0.000000D+00      0.000000D+00      0.000000D+00
   zz         0.105247D+02      0.155960D+01      0.173529D+01

 ----------------------------------------------------------------------

 Dipole orientation:
     9         -0.00000000          0.00000000          0.00000000
     1          0.79585941          0.00000000          1.56230666
     9          2.35862053         -0.00000000          4.63007476
     1          1.37056053         -0.00000000          6.07156526

 Electric dipole moment (dipole orientation):
 (Debye = 10**-18 statcoulomb cm , SI units = C m)
                  (au)            (Debye)         (10**-30 SI)
   Tot        0.140832D+01      0.357959D+01      0.119402D+02
   x          0.000000D+00      0.000000D+00      0.000000D+00
   y          0.000000D+00      0.000000D+00      0.000000D+00
   z          0.140832D+01      0.357959D+01      0.119402D+02

 Dipole polarizability, Alpha (dipole orientation).
 (esu units = cm**3 , SI units = C**2 m**2 J**-1)
 Alpha(0;0):
               (au)            (10**-24 esu)      (10**-40 SI)
   iso        0.110367D+02      0.163547D+01      0.181970D+01
   aniso      0.326307D+01      0.483537D+00      0.538007D+00
   xx         0.104951D+02      0.155522D+01      0.173041D+01
   yx         0.000000D+00      0.000000D+00      0.000000D+00
   yy         0.958729D+01      0.142069D+01      0.158073D+01
   zx         0.608461D+00      0.901646D-01      0.100322D+00
   zy         0.000000D+00      0.000000D+00      0.000000D+00
   zz         0.130276D+02      0.193050D+01      0.214797D+01

 ----------------------------------------------------------------------
 1\1\GINC-N2131\Freq\RMP2-FC\Aug-CC-pVTZ\F2H2\GDS001\07-Apr-2023\1\\#N 
 Geom=AllCheck Guess=TCheck SCRF=Check GenChk RMP2(FC)/Aug-CC-pVTZ Freq
 \\Optimize Linear\\0,1\F\X,1,1.\H,1,Rah,2,90.\F,1,Rab,2,90.,3,0.,0\X,4
 ,1.,1,90.,2,90.,0\H,4,R1,5,90.,1,D1,0\\R1=0.92479792\D1=118.57668568\R
 ah=0.92782654\Rab=2.74972023\\Version=ES64L-G16RevA.03\State=1-A'\HF=-
 200.1272573\MP2=-200.6891774\RMSD=6.716e-10\RMSF=3.992e-04\ZeroPoint=0
 .0216147\Thermal=0.0260343\Dipole=1.2548777,0.,0.6392511\DipoleDeriv=-
 0.524795,0.,-0.0090844,0.,-0.41242,0.,-0.0047032,0.,-0.4133053,0.67539
 74,0.,0.0235064,0.,0.3591006,0.,0.0095524,0.,0.3533773,-0.5723589,0.,-
 0.0168848,0.,-0.3632078,0.,-0.0245561,0.,-0.3320459,0.4217565,0.,0.002
 4628,0.,0.4165272,0.,0.019707,0.,0.3919739\Polar=12.9980538,0.,9.58728
 79,0.6665558,0.,10.5247346\PG=CS [SG(F2H2)]\NImag=0\\0.58948718,0.,0.0
 0337642,-0.00006549,0.,0.00312365,-0.57836394,0.,0.00004112,0.57761168
 ,0.,-0.00521225,0.,0.,0.00804225,0.00045227,0.,-0.00543492,-0.00053656
 ,0.,0.01014387,-0.01132903,0.,-0.00130315,0.00162126,0.,0.00401539,0.1
 5117180,0.,0.00231492,0.,0.,-0.00355309,0.,0.,0.00148222,-0.00309978,0
 .,0.00284145,0.00537267,0.,-0.00548642,0.24811736,0.,0.46727175,0.0002
 0579,0.,0.00132753,-0.00086901,0.,-0.00393110,-0.14146403,0.,-0.250390
 25,0.14212725,0.,-0.00047909,0.,0.,0.00072309,0.,0.,-0.00024404,0.,0.,
 0.00000004,0.00271299,0.,-0.00053017,-0.00487722,0.,0.00077747,-0.2508
 2959,0.,-0.46462679,0.25299382,0.,0.46437949\\0.00000004,0.,-0.0007352
 7,-0.00000005,0.,0.00110975,0.00000006,0.,-0.00037452,-0.00000006,0.,0
 .00000004\\\@


 MYSTERY IS THE WISDOM OF BLOCKHEADS... HORACE WALPOLE 
 Job cpu time:       0 days  0 hours 31 minutes 30.6 seconds.
 Elapsed time:       0 days  0 hours  1 minutes  8.8 seconds.
 File lengths (MBytes):  RWF=   1600 Int=      0 D2E=      0 Chk=      8 Scr=      8
 Normal termination of Gaussian 16 at Fri Apr  7 16:19:48 2023.
