 Entering Gaussian System, Link 0=g16
 Input=h2o_h2o_linear_mp2_avtz_opt_freq.gjf
 Output=h2o_h2o_linear_mp2_avtz_opt_freq.log
 Initial command:
 /sw/contrib/gaussian/g16/A03/g16/l1.exe "/gscratch/scrubbed/gds001/Gau-24730.inp" -scrdir="/gscratch/scrubbed/gds001/"
 Entering Link 1 = /sw/contrib/gaussian/g16/A03/g16/l1.exe PID=     24731.
  
 Copyright (c) 1988,1990,1992,1993,1995,1998,2003,2009,2016,
            Gaussian, Inc.  All Rights Reserved.
  
 This is part of the Gaussian(R) 16 program.  It is based on
 the Gaussian(R) 09 system (copyright 2009, Gaussian, Inc.),
 the Gaussian(R) 03 system (copyright 2003, Gaussian, Inc.),
 the Gaussian(R) 98 system (copyright 1998, Gaussian, Inc.),
 the Gaussian(R) 94 system (copyright 1995, Gaussian, Inc.),
 the Gaussian 92(TM) system (copyright 1992, Gaussian, Inc.),
 the Gaussian 90(TM) system (copyright 1990, Gaussian, Inc.),
 the Gaussian 88(TM) system (copyright 1988, Gaussian, Inc.),
 the Gaussian 86(TM) system (copyright 1986, Carnegie Mellon
 University), and the Gaussian 82(TM) system (copyright 1983,
 Carnegie Mellon University). Gaussian is a federally registered
 trademark of Gaussian, Inc.
  
 This software contains proprietary and confidential information,
 including trade secrets, belonging to Gaussian, Inc.
  
 This software is provided under written license and may be
 used, copied, transmitted, or stored only in accord with that
 written license.
  
 The following legend is applicable only to US Government
 contracts under FAR:
  
                    RESTRICTED RIGHTS LEGEND
  
 Use, reproduction and disclosure by the US Government is
 subject to restrictions as set forth in subparagraphs (a)
 and (c) of the Commercial Computer Software - Restricted
 Rights clause in FAR 52.227-19.
  
 Gaussian, Inc.
 340 Quinnipiac St., Bldg. 40, Wallingford CT 06492
  
  
 ---------------------------------------------------------------
 Warning -- This program may not be used in any manner that
 competes with the business of Gaussian, Inc. or will provide
 assistance to any competitor of Gaussian, Inc.  The licensee
 of this program is prohibited from giving any competitor of
 Gaussian, Inc. access to this program.  By using this program,
 the user acknowledges that Gaussian, Inc. is engaged in the
 business of creating and licensing software in the field of
 computational chemistry and represents and warrants to the
 licensee that it is not a competitor of Gaussian, Inc. and that
 it will not use this program in any manner prohibited above.
 ---------------------------------------------------------------
  

 Cite this work as:
 Gaussian 16, Revision A.03,
 M. J. Frisch, G. W. Trucks, H. B. Schlegel, G. E. Scuseria, 
 M. A. Robb, J. R. Cheeseman, G. Scalmani, V. Barone, 
 G. A. Petersson, H. Nakatsuji, X. Li, M. Caricato, A. V. Marenich, 
 J. Bloino, B. G. Janesko, R. Gomperts, B. Mennucci, H. P. Hratchian, 
 J. V. Ortiz, A. F. Izmaylov, J. L. Sonnenberg, D. Williams-Young, 
 F. Ding, F. Lipparini, F. Egidi, J. Goings, B. Peng, A. Petrone, 
 T. Henderson, D. Ranasinghe, V. G. Zakrzewski, J. Gao, N. Rega, 
 G. Zheng, W. Liang, M. Hada, M. Ehara, K. Toyota, R. Fukuda, 
 J. Hasegawa, M. Ishida, T. Nakajima, Y. Honda, O. Kitao, H. Nakai, 
 T. Vreven, K. Throssell, J. A. Montgomery, Jr., J. E. Peralta, 
 F. Ogliaro, M. J. Bearpark, J. J. Heyd, E. N. Brothers, K. N. Kudin, 
 V. N. Staroverov, T. A. Keith, R. Kobayashi, J. Normand, 
 K. Raghavachari, A. P. Rendell, J. C. Burant, S. S. Iyengar, 
 J. Tomasi, M. Cossi, J. M. Millam, M. Klene, C. Adamo, R. Cammi, 
 J. W. Ochterski, R. L. Martin, K. Morokuma, O. Farkas, 
 J. B. Foresman, and D. J. Fox, Gaussian, Inc., Wallingford CT, 2016.
 
 ******************************************
 Gaussian 16:  ES64L-G16RevA.03 25-Dec-2016
                31-Mar-2023 
 ******************************************
 %nprocshared=28
 Will use up to   28 processors via shared memory.
 %mem=41GB
 ------------------------------------------------------------
 # mp2/aug-cc-pVTZ opt=(z-matrix,Tight,MaxCycles=100000) freq
 ------------------------------------------------------------
 1/6=100000,7=10,10=7,18=40,38=1/1,3;
 2/12=2,17=6,18=5,29=3,40=1/2;
 3/5=16,6=1,7=10,11=9,25=1,30=1,71=1/1,2,3;
 4//1;
 5/5=2,38=5/2;
 8/6=4,10=1/1;
 9/15=2,16=-3/6;
 10/5=1/2;
 6/7=2,8=2,9=2,10=2/1;
 7/12=2,29=1/1,2,3,16;
 1/6=100000,7=10,10=7,18=40/3(2);
 2/29=3/2;
 99//99;
 2/29=3/2;
 3/5=16,6=1,7=10,11=9,25=1,30=1,71=1/1,2,3;
 4/5=5,16=3,69=1/1;
 5/5=2,38=5/2;
 8/6=4,10=1/1;
 9/15=2,16=-3/6;
 10/5=1/2;
 7/12=2/1,2,3,16;
 1/6=100000,7=10,18=40/3(-8);
 2/29=3/2;
 6/7=2,8=2,9=2,10=2/1;
 99//99;
 -------------------
 Optimization Linear
 -------------------
 Symbolic Z-matrix:
 Charge =  0 Multiplicity = 1
 O
 X                    1     1. 
 H                    1    Roh      2     90. 
 O                    1    Roo      2     90.      3     0.       0
 H                    1    R1       3    A1       2     0.       0
 H                    4    R2       1    A2       5    D1       0
 H                    4    R2       1    A2       5    -D1      0
       Variables:
  Roh                   1.                       
  Roo                   3.                       
  R1                    1.                       
  A1                  105.                       
  R2                    1.                       
  A2                  110.                       
  D1                  120.                       
 

 GradGradGradGradGradGradGradGradGradGradGradGradGradGradGradGradGradGrad
 Berny optimization.
 Initialization pass.
                       ----------------------------
                       !    Initial Parameters    !
                       ! (Angstroms and Degrees)  !
 ----------------------                            ----------------------
 !      Name          Value   Derivative information (Atomic Units)     !
 ------------------------------------------------------------------------
 !       Roh         1.0      estimate D2E/DX2                          !
 !       Roo         3.0      estimate D2E/DX2                          !
 !       R1          1.0      estimate D2E/DX2                          !
 !       A1        105.0      estimate D2E/DX2                          !
 !       R2          1.0      estimate D2E/DX2                          !
 !       A2        110.0      estimate D2E/DX2                          !
 !       D1        120.0      estimate D2E/DX2                          !
 ------------------------------------------------------------------------
 Trust Radius=3.00D-01 FncErr=1.00D-07 GrdErr=1.00D-07 EigMax=2.50D+02 EigMin=1.00D-04
 Number of steps in this run=    100 maximum allowed number of steps=    100.
 GradGradGradGradGradGradGradGradGradGradGradGradGradGradGradGradGradGrad

 ---------------------------------------------------------------------------------------------------
                            Z-MATRIX (ANGSTROMS AND DEGREES)
   CD    Cent   Atom    N1       Length/X        N2       Alpha/Y        N3        Beta/Z          J
 ---------------------------------------------------------------------------------------------------
      1      1  O 
      2         X        1   1.000000(     1)
      3      2  H        1   1.000000(     2)      2   90.000(     7)
      4      3  O        1   3.000000(     3)      2   90.000(     8)      3    0.000(    12)      0
      5      4  H        1   1.000000(     4)      3  105.000(     9)      2    0.000(    13)      0
      6      5  H        4   1.000000(     5)      1  110.000(    10)      5  120.000(    14)      0
      7      6  H        4   1.000000(     6)      1  110.000(    11)      5 -120.000(    15)      0
 ---------------------------------------------------------------------------------------------------
                         Z-Matrix orientation:                         
 ---------------------------------------------------------------------
 Center     Atomic      Atomic             Coordinates (Angstroms)
 Number     Number       Type             X           Y           Z
 ---------------------------------------------------------------------
      1          8           0        0.000000    0.000000    0.000000
      2         -1           0        0.000000    0.000000    1.000000
      3          1           0        1.000000    0.000000    0.000000
      4          8           0        3.000000    0.000000    0.000000
      5          1           0       -0.258819    0.000000    0.965926
      6          1           0        3.342020   -0.813798   -0.469846
      7          1           0        3.342020    0.813798   -0.469846
 ---------------------------------------------------------------------
                    Distance matrix (angstroms):
                    1          2          3          4          5
     1  O    0.000000
     2  X    1.000000   0.000000
     3  H    1.000000   1.414214   0.000000
     4  O    3.000000   3.162278   2.000000   0.000000
     5  H    1.000000   0.261052   1.586707   3.398958   0.000000
     6  H    3.471616   3.740563   2.523506   1.000000   3.961029
     7  H    3.471616   3.740563   2.523506   1.000000   3.961029
                    6          7
     6  H    0.000000
     7  H    1.627595   0.000000
 Stoichiometry    H4O2
 Framework group  CS[SG(H2O2),X(H2)]
 Deg. of freedom     8
 Full point group                 CS      NOp   2
 Largest Abelian subgroup         CS      NOp   2
 Largest concise Abelian subgroup CS      NOp   2
                         Standard orientation:                         
 ---------------------------------------------------------------------
 Center     Atomic      Atomic             Coordinates (Angstroms)
 Number     Number       Type             X           Y           Z
 ---------------------------------------------------------------------
      1          8           0       -0.001312    1.571261    0.000000
      2          1           0       -0.001312    0.571261    0.000000
      3          8           0       -0.001312   -1.428739   -0.000000
      4          1           0        0.964614    1.830080    0.000000
      5          1           0       -0.471158   -1.770759    0.813798
      6          1           0       -0.471158   -1.770759   -0.813798
 ---------------------------------------------------------------------
 Rotational constants (GHZ):         196.4653423           6.0514370           6.0443848
 Standard basis: Aug-CC-pVTZ (5D, 7F)
 There are   135 symmetry adapted cartesian basis functions of A'  symmetry.
 There are    75 symmetry adapted cartesian basis functions of A"  symmetry.
 There are   115 symmetry adapted basis functions of A'  symmetry.
 There are    69 symmetry adapted basis functions of A"  symmetry.
   184 basis functions,   252 primitive gaussians,   210 cartesian basis functions
    10 alpha electrons       10 beta electrons
       nuclear repulsion energy        35.3690972641 Hartrees.
 NAtoms=    6 NActive=    6 NUniq=    5 SFac= 1.44D+00 NAtFMM=   60 NAOKFM=F Big=F
 Integral buffers will be    131072 words long.
 Raffenetti 1 integral format.
 Two-electron integral symmetry is turned on.
 One-electron integrals computed using PRISM.
 NBasis=   184 RedAO= T EigKep=  2.60D-04  NBF=   115    69
 NBsUse=   184 1.00D-06 EigRej= -1.00D+00 NBFU=   115    69
 ExpMin= 2.53D-02 ExpMax= 1.53D+04 ExpMxC= 5.22D+02 IAcc=3 IRadAn=         5 AccDes= 0.00D+00
 Harris functional with IExCor=  205 and IRadAn=       5 diagonalized for initial guess.
 HarFok:  IExCor=  205 AccDes= 0.00D+00 IRadAn=         5 IDoV= 1 UseB2=F ITyADJ=14
 ICtDFT=  3500011 ScaDFX=  1.000000  1.000000  1.000000  1.000000
 FoFCou: FMM=F IPFlag=           0 FMFlag=      100000 FMFlg1=           0
         NFxFlg=           0 DoJE=T BraDBF=F KetDBF=T FulRan=T
         wScrn=  0.000000 ICntrl=       500 IOpCl=  0 I1Cent=   200000004 NGrid=           0
         NMat0=    1 NMatS0=      1 NMatT0=    0 NMatD0=    1 NMtDS0=    0 NMtDT0=    0
 Petite list used in FoFCou.
 Initial guess orbital symmetries:
       Occupied  (A') (A') (A') (A') (A") (A') (A') (A') (A') (A")
       Virtual   (A') (A') (A") (A') (A') (A') (A") (A') (A') (A")
                 (A') (A") (A') (A') (A") (A') (A') (A") (A') (A')
                 (A') (A") (A") (A') (A') (A") (A') (A') (A") (A')
                 (A') (A') (A') (A") (A") (A") (A') (A') (A") (A')
                 (A') (A') (A') (A") (A') (A") (A') (A") (A') (A')
                 (A") (A') (A") (A') (A") (A') (A") (A') (A') (A")
                 (A') (A") (A') (A") (A') (A') (A") (A') (A") (A')
                 (A") (A') (A") (A') (A') (A") (A') (A') (A') (A")
                 (A') (A") (A') (A") (A') (A') (A') (A") (A') (A")
                 (A') (A') (A") (A') (A') (A') (A") (A') (A") (A')
                 (A') (A") (A') (A") (A") (A') (A') (A") (A') (A")
                 (A') (A") (A') (A") (A') (A') (A") (A') (A") (A")
                 (A") (A') (A") (A') (A') (A') (A") (A') (A') (A')
                 (A") (A') (A") (A') (A") (A") (A') (A') (A') (A")
                 (A") (A') (A') (A') (A') (A') (A') (A") (A") (A')
                 (A') (A') (A") (A') (A") (A") (A') (A') (A") (A')
                 (A") (A') (A") (A") (A') (A') (A") (A') (A') (A')
                 (A") (A') (A') (A')
 The electronic state of the initial guess is 1-A'.
 Keep R1 ints in memory in symmetry-blocked form, NReq=217645660.
 Requested convergence on RMS density matrix=1.00D-08 within 128 cycles.
 Requested convergence on MAX density matrix=1.00D-06.
 Requested convergence on             energy=1.00D-06.
 No special actions if energy rises.
 SCF Done:  E(RHF) =  -152.114989895     A.U. after   10 cycles
            NFock= 10  Conv=0.88D-08     -V/T= 2.0033
 ExpMin= 2.53D-02 ExpMax= 1.53D+04 ExpMxC= 5.22D+02 IAcc=3 IRadAn=         5 AccDes= 0.00D+00
 HarFok:  IExCor=  205 AccDes= 0.00D+00 IRadAn=         5 IDoV=-2 UseB2=F ITyADJ=14
 ICtDFT= 12500011 ScaDFX=  1.000000  1.000000  1.000000  1.000000
 Range of M.O.s used for correlation:     3   184
 NBasis=   184 NAE=    10 NBE=    10 NFC=     2 NFV=     0
 NROrb=    182 NOA=     8 NOB=     8 NVA=   174 NVB=   174

 **** Warning!!: The largest alpha MO coefficient is  0.19067538D+02

 Fully direct method using O(ONN) memory.
 JobTyp=1 Pass  1:  I=   3 to  10 NPSUse= 28 ParTrn=T ParDer=T DoDerP=T.
 Spin components of T(2) and E(2):
     alpha-alpha T2 =       0.1706667803D-01 E2=     -0.6651555348D-01
     alpha-beta  T2 =       0.9862988418D-01 E2=     -0.4124970899D+00
     beta-beta   T2 =       0.1706667803D-01 E2=     -0.6651555348D-01
 ANorm=    0.1064313507D+01
 E2 =    -0.5455281968D+00 EUMP2 =    -0.15266051809154D+03
          IDoAtm=111111
          Differentiating once with respect to electric field.
                with respect to dipole field.
          Differentiating once with respect to nuclear coordinates.
 Keep R1 ints in memory in symmetry-blocked form, NReq=217646876.
          There are     1 degrees of freedom in the 1st order CPHF.  IDoFFX=0 NUNeed=     1.
 LinEq1:  Iter=  0 NonCon=     1 RMS=3.53D-03 Max=4.92D-02 NDo=     1
 AX will form     1 AO Fock derivatives at one time.
 LinEq1:  Iter=  1 NonCon=     1 RMS=4.66D-04 Max=4.98D-03 NDo=     1
 LinEq1:  Iter=  2 NonCon=     1 RMS=1.55D-04 Max=1.78D-03 NDo=     1
 LinEq1:  Iter=  3 NonCon=     1 RMS=4.65D-05 Max=3.31D-04 NDo=     1
 LinEq1:  Iter=  4 NonCon=     1 RMS=6.24D-06 Max=4.50D-05 NDo=     1
 LinEq1:  Iter=  5 NonCon=     1 RMS=1.25D-06 Max=9.47D-06 NDo=     1
 LinEq1:  Iter=  6 NonCon=     1 RMS=2.71D-07 Max=2.65D-06 NDo=     1
 LinEq1:  Iter=  7 NonCon=     1 RMS=1.22D-07 Max=1.25D-06 NDo=     1
 LinEq1:  Iter=  8 NonCon=     1 RMS=1.92D-08 Max=1.29D-07 NDo=     1
 LinEq1:  Iter=  9 NonCon=     1 RMS=3.12D-09 Max=2.64D-08 NDo=     1
 LinEq1:  Iter= 10 NonCon=     1 RMS=6.33D-10 Max=4.38D-09 NDo=     1
 LinEq1:  Iter= 11 NonCon=     0 RMS=9.27D-11 Max=9.54D-10 NDo=     1
 Linear equations converged to 1.000D-10 1.000D-09 after    11 iterations.
 End of Minotr F.D. properties file   721 does not exist.
 End of Minotr F.D. properties file   722 does not exist.
 End of Minotr F.D. properties file   788 does not exist.

 **********************************************************************

            Population analysis using the SCF density.

 **********************************************************************

 Orbital symmetries:
       Occupied  (A') (A') (A') (A') (A") (A') (A') (A') (A') (A")
       Virtual   (A') (A") (A') (A') (A') (A') (A') (A") (A") (A')
                 (A') (A") (A') (A') (A") (A') (A') (A") (A") (A')
                 (A') (A') (A") (A') (A') (A") (A') (A') (A") (A')
                 (A') (A') (A") (A') (A") (A') (A") (A') (A") (A')
                 (A') (A') (A") (A") (A') (A') (A') (A") (A') (A')
                 (A") (A') (A") (A') (A") (A") (A') (A') (A") (A')
                 (A") (A') (A') (A") (A') (A') (A") (A') (A") (A')
                 (A") (A') (A") (A') (A") (A') (A') (A') (A") (A')
                 (A') (A') (A") (A") (A') (A') (A") (A') (A') (A")
                 (A') (A') (A") (A') (A') (A') (A") (A") (A') (A')
                 (A") (A') (A") (A') (A") (A') (A') (A") (A') (A")
                 (A') (A") (A") (A') (A') (A') (A") (A') (A") (A")
                 (A') (A") (A') (A") (A') (A') (A") (A') (A') (A")
                 (A') (A') (A") (A") (A') (A") (A') (A") (A') (A')
                 (A") (A') (A') (A') (A') (A') (A") (A') (A') (A")
                 (A') (A') (A") (A') (A") (A") (A") (A') (A') (A")
                 (A') (A") (A') (A') (A") (A') (A") (A') (A') (A')
                 (A") (A') (A') (A')
 The electronic state is 1-A'.
 Alpha  occ. eigenvalues --  -20.59763 -20.54240  -1.35782  -1.30346  -0.72859
 Alpha  occ. eigenvalues --   -0.67414  -0.59930  -0.55191  -0.52583  -0.47829
 Alpha virt. eigenvalues --    0.02191   0.04451   0.04697   0.07378   0.12495
 Alpha virt. eigenvalues --    0.14001   0.16370   0.16876   0.17522   0.18556
 Alpha virt. eigenvalues --    0.21116   0.21758   0.23512   0.24209   0.26592
 Alpha virt. eigenvalues --    0.27370   0.29172   0.30758   0.36515   0.36772
 Alpha virt. eigenvalues --    0.36988   0.40337   0.41227   0.42373   0.43848
 Alpha virt. eigenvalues --    0.44781   0.47126   0.57598   0.59460   0.60931
 Alpha virt. eigenvalues --    0.66790   0.69524   0.70603   0.72594   0.75174
 Alpha virt. eigenvalues --    0.77089   0.77535   0.79035   0.82058   0.82887
 Alpha virt. eigenvalues --    0.86416   0.89453   0.90057   0.93574   0.93587
 Alpha virt. eigenvalues --    0.94100   0.96489   0.96561   0.98044   0.99476
 Alpha virt. eigenvalues --    1.00906   1.01027   1.01783   1.03953   1.05882
 Alpha virt. eigenvalues --    1.12169   1.14926   1.15881   1.17156   1.21151
 Alpha virt. eigenvalues --    1.23045   1.23771   1.28204   1.30457   1.36970
 Alpha virt. eigenvalues --    1.42890   1.44243   1.49358   1.54658   1.56900
 Alpha virt. eigenvalues --    1.62394   1.66296   1.68633   1.70214   1.77166
 Alpha virt. eigenvalues --    1.83472   1.90685   1.97983   2.02014   2.02744
 Alpha virt. eigenvalues --    2.10618   2.25393   2.29825   2.31323   2.31669
 Alpha virt. eigenvalues --    2.39952   2.42441   2.44604   2.47613   2.47742
 Alpha virt. eigenvalues --    2.49081   2.50972   2.56441   2.62495   2.64409
 Alpha virt. eigenvalues --    2.70841   2.72515   2.77171   2.77788   2.81553
 Alpha virt. eigenvalues --    2.85682   2.87199   2.88507   2.95196   2.99435
 Alpha virt. eigenvalues --    3.02973   3.67457   3.69048   3.74254   3.97875
 Alpha virt. eigenvalues --    4.02859   4.05062   4.16391   4.18951   4.19615
 Alpha virt. eigenvalues --    4.21371   4.22265   4.26870   4.32102   4.39410
 Alpha virt. eigenvalues --    4.40567   4.42845   4.45414   4.45741   4.47731
 Alpha virt. eigenvalues --    4.53744   4.55147   4.66031   4.66365   4.75793
 Alpha virt. eigenvalues --    4.76404   4.93287   4.99646   5.06401   5.07517
 Alpha virt. eigenvalues --    5.13523   5.15236   5.26307   5.26466   5.31276
 Alpha virt. eigenvalues --    5.46827   5.52446   5.67103   5.70866   6.17173
 Alpha virt. eigenvalues --    6.22678   6.54792   6.57754   6.75860   6.76304
 Alpha virt. eigenvalues --    6.88451   6.90480   7.10107   7.11358   7.17963
 Alpha virt. eigenvalues --    7.25413   7.29145   7.29397   7.29682   7.32292
 Alpha virt. eigenvalues --    7.32916   7.36323   7.39844   7.48137   7.53165
 Alpha virt. eigenvalues --    7.65916   7.79890   7.89182   7.91034   7.99407
 Alpha virt. eigenvalues --    8.62307   8.68645  14.63036  15.82125
          Condensed to atoms (all electrons):
               1          2          3          4          5          6
     1  O    8.052354   0.241172  -0.014905   0.269571   0.000663   0.000663
     2  H    0.241172   0.427214  -0.031982   0.041624  -0.002289  -0.002289
     3  O   -0.014905  -0.031982   8.027114   0.000513   0.270213   0.270213
     4  H    0.269571   0.041624   0.000513   0.457587  -0.000386  -0.000386
     5  H    0.000663  -0.002289   0.270213  -0.000386   0.450033   0.025437
     6  H    0.000663  -0.002289   0.270213  -0.000386   0.025437   0.450033
 Mulliken charges:
               1
     1  O   -0.549517
     2  H    0.326549
     3  O   -0.521167
     4  H    0.231476
     5  H    0.256330
     6  H    0.256330
 Sum of Mulliken charges =  -0.00000
 Mulliken charges with hydrogens summed into heavy atoms:
               1
     1  O    0.008508
     3  O   -0.008508
 Electronic spatial extent (au):  <R**2>=            200.6291
 Charge=             -0.0000 electrons
 Dipole moment (field-independent basis, Debye):
    X=             -0.0388    Y=             -2.9496    Z=              0.0000  Tot=              2.9499
 Quadrupole moment (field-independent basis, Debye-Ang):
   XX=            -11.6953   YY=            -12.5774   ZZ=            -11.5346
   XY=              6.4454   XZ=             -0.0000   YZ=             -0.0000
 Traceless Quadrupole moment (field-independent basis, Debye-Ang):
   XX=              0.2405   YY=             -0.6417   ZZ=              0.4012
   XY=              6.4454   XZ=             -0.0000   YZ=             -0.0000
 Octapole moment (field-independent basis, Debye-Ang**2):
  XXX=              1.4570  YYY=            -11.6219  ZZZ=              0.0000  XYY=              0.5665
  XXY=              1.7930  XXZ=              0.0000  XZZ=             -1.4900  YZZ=             -7.1007
  YYZ=              0.0000  XYZ=              0.0000
 Hexadecapole moment (field-independent basis, Debye-Ang**3):
 XXXX=            -13.5349 YYYY=           -187.8787 ZZZZ=            -12.8680 XXXY=             -0.5782
 XXXZ=              0.0000 YYYX=             18.5721 YYYZ=             -0.0000 ZZZX=             -0.0000
 ZZZY=             -0.0000 XXYY=            -28.2477 XXZZ=             -4.4673 YYZZ=            -28.4708
 XXYZ=             -0.0000 YYXZ=             -0.0000 ZZXY=              0.9371
 N-N= 3.536909726413D+01 E-N=-4.318646618699D+02  KE= 1.516152220904D+02
 Symmetry A'   KE= 1.437032353138D+02
 Symmetry A"   KE= 7.911986776602D+00
 Calling FoFJK, ICntrl=  10002127 FMM=F ISym2X=1 I1Cent= 0 IOpClX= 0 NMat=1 NMatS=1 NMatT=0.
 ***** Axes restored to original set *****
 -------------------------------------------------------------------
 Center     Atomic                   Forces (Hartrees/Bohr)
 Number     Number              X              Y              Z
 -------------------------------------------------------------------
      1        8           0.015823745    0.000000000    0.029541727
      2        1          -0.026630673   -0.000000000    0.004463233
      3        8           0.014460325    0.000000000   -0.022854304
      4        1           0.012374022   -0.000000000   -0.033561130
      5        1          -0.008013710    0.033466031    0.011205237
      6        1          -0.008013710   -0.033466031    0.011205237
 -------------------------------------------------------------------
 Cartesian Forces:  Max     0.033561130 RMS     0.018977484
 -----------------------------------------------------------------------------------------------
                       Internal Coordinate Forces (Hartree/Bohr or radian)
  Cent   Atom   N1       Length/X         N2         Alpha/Y        N3         Beta/Z          J
 -----------------------------------------------------------------------------------------------
      1  O 
         X        1   0.000000(     1)
      2  H        1  -0.026631(     2)      2  -0.002262(     7)
      3  O        1  -0.001567(     3)      2   0.002262(     8)      3  -0.000000(    12)     0
      4  H        1  -0.035620(     4)      3  -0.006172(     9)      2   0.000000(    13)     0
      5  H        4  -0.035240(     5)      1   0.008123(    10)      5   0.012482(    14)     0
      6  H        4  -0.035240(     6)      1   0.008123(    11)      5  -0.012482(    15)     0
 -----------------------------------------------------------------------------------------------
 Internal  Forces:  Max     0.035620195 RMS     0.018177026

 GradGradGradGradGradGradGradGradGradGradGradGradGradGradGradGradGradGrad
 Berny optimization.
 Search for a local minimum.
 Step number   1 out of a maximum of  100
 All quantities printed in internal units (Hartrees-Bohrs-Radians)
 Second derivative matrix not updated -- first step.
 The second derivative matrix:
                          Roh       Roo       R1        A1        R2
           Roh          0.47688
           Roo         -0.00000   0.01800
           R1          -0.00000  -0.00000   0.47688
           A1          -0.00000  -0.00000  -0.00000   0.32000
           R2          -0.00000  -0.00000  -0.00000  -0.00000   0.95377
           A2           0.00000   0.00000   0.00000   0.00000   0.00000
           D1          -0.00000   0.00000  -0.00000  -0.00000   0.00000
                          A2        D1
           A2           0.48684
           D1           0.26215   0.42714
 ITU=  0
     Eigenvalues ---    0.01800   0.19314   0.32000   0.47688   0.47688
     Eigenvalues ---    0.72083   0.95377
 RFO step:  Lambda=-1.08335820D-02 EMin= 1.79996711D-02
 Linear search not attempted -- first point.
 Variable       Old X    -DE/DX   Delta X   Delta X   Delta X     New X
                                 (Linear)    (Quad)   (Total)
   Roh        1.88973  -0.02663   0.00000  -0.05460  -0.05460   1.83512
   Roo        5.66918  -0.00157   0.00000  -0.05435  -0.05435   5.61483
    R1        1.88973  -0.03562   0.00000  -0.07303  -0.07303   1.81669
    A1        1.83260  -0.00617   0.00000  -0.01866  -0.01866   1.81394
    R2        1.88973  -0.07048   0.00000  -0.07307  -0.07307   1.81666
    A2        1.91986   0.01625   0.00000   0.00382   0.00382   1.92369
    D1        2.09440   0.02496   0.00000   0.05471   0.05471   2.14910
         Item               Value     Threshold  Converged?
 Maximum Force            0.070480     0.000015     NO 
 RMS     Force            0.033537     0.000010     NO 
 Maximum Displacement     0.073067     0.000060     NO 
 RMS     Displacement     0.053404     0.000040     NO 
 Predicted change in Energy=-5.524933D-03
 GradGradGradGradGradGradGradGradGradGradGradGradGradGradGradGradGradGrad

 ---------------------------------------------------------------------------------------------------
                            Z-MATRIX (ANGSTROMS AND DEGREES)
   CD    Cent   Atom    N1       Length/X        N2       Alpha/Y        N3        Beta/Z          J
 ---------------------------------------------------------------------------------------------------
      1      1  O 
      2         X        1   1.000000(     1)
      3      2  H        1   0.971105(     2)      2   90.000(     7)
      4      3  O        1   2.971239(     3)      2   90.000(     8)      3    0.000(    12)      0
      5      4  H        1   0.961352(     4)      3  103.931(     9)      2    0.000(    13)      0
      6      5  H        4   0.961335(     5)      1  110.219(    10)      5  123.135(    14)      0
      7      6  H        4   0.961335(     6)      1  110.219(    11)      5 -123.135(    15)      0
 ---------------------------------------------------------------------------------------------------
                         Z-Matrix orientation:                         
 ---------------------------------------------------------------------
 Center     Atomic      Atomic             Coordinates (Angstroms)
 Number     Number       Type             X           Y           Z
 ---------------------------------------------------------------------
      1          8           0        0.000000    0.000000    0.000000
      2         -1           0        0.000000    0.000000    1.000000
      3          1           0        0.971105    0.000000    0.000000
      4          8           0        2.971239    0.000000    0.000000
      5          1           0       -0.231450    0.000000    0.933075
      6          1           0        3.303487   -0.755404   -0.493092
      7          1           0        3.303487    0.755404   -0.493092
 ---------------------------------------------------------------------
                    Distance matrix (angstroms):
                    1          2          3          4          5
     1  O    0.000000
     2  X    1.000000   0.000000
     3  H    0.971105   1.393932   0.000000
     4  O    2.971239   3.135006   2.000134   0.000000
     5  H    0.961352   0.240932   1.522093   3.335842   0.000000
     6  H    3.424442   3.703105   2.500756   0.961335   3.885919
     7  H    3.424442   3.703105   2.500756   0.961335   3.885919
                    6          7
     6  H    0.000000
     7  H    1.510808   0.000000
 Stoichiometry    H4O2
 Framework group  CS[SG(H2O2),X(H2)]
 Deg. of freedom     8
 Full point group                 CS      NOp   2
 Largest Abelian subgroup         CS      NOp   2
 Largest concise Abelian subgroup CS      NOp   2
                         Standard orientation:                         
 ---------------------------------------------------------------------
 Center     Atomic      Atomic             Coordinates (Angstroms)
 Number     Number       Type             X           Y           Z
 ---------------------------------------------------------------------
      1          8           0        0.002656    1.555827    0.000000
      2          1           0        0.002656    0.584722    0.000000
      3          8           0        0.002656   -1.415412   -0.000000
      4          1           0        0.935730    1.787277    0.000000
      5          1           0       -0.490437   -1.747660    0.755404
      6          1           0       -0.490437   -1.747660   -0.755404
 ---------------------------------------------------------------------
 Rotational constants (GHZ):         213.2336291           6.1823824           6.1771179
 Standard basis: Aug-CC-pVTZ (5D, 7F)
 There are   135 symmetry adapted cartesian basis functions of A'  symmetry.
 There are    75 symmetry adapted cartesian basis functions of A"  symmetry.
 There are   115 symmetry adapted basis functions of A'  symmetry.
 There are    69 symmetry adapted basis functions of A"  symmetry.
   184 basis functions,   252 primitive gaussians,   210 cartesian basis functions
    10 alpha electrons       10 beta electrons
       nuclear repulsion energy        36.2203589385 Hartrees.
 NAtoms=    6 NActive=    6 NUniq=    5 SFac= 1.44D+00 NAtFMM=   60 NAOKFM=F Big=F
 Integral buffers will be    131072 words long.
 Raffenetti 1 integral format.
 Two-electron integral symmetry is turned on.
 One-electron integrals computed using PRISM.
 NBasis=   184 RedAO= T EigKep=  2.39D-04  NBF=   115    69
 NBsUse=   184 1.00D-06 EigRej= -1.00D+00 NBFU=   115    69
 Initial guess from the checkpoint file:  "/gscratch/scrubbed/gds001/Gau-24731.chk"
 B after Tr=    -0.000000    0.000000   -0.000000
         Rot=    1.000000   -0.000000   -0.000000    0.000909 Ang=   0.10 deg.
 Initial guess orbital symmetries:
       Occupied  (A') (A') (A') (A') (A") (A') (A') (A') (A') (A")
       Virtual   (A') (A") (A') (A') (A') (A') (A') (A") (A") (A')
                 (A') (A") (A') (A') (A") (A') (A') (A") (A") (A')
                 (A') (A') (A") (A') (A') (A") (A') (A') (A") (A')
                 (A') (A') (A") (A') (A") (A') (A") (A') (A") (A')
                 (A') (A') (A") (A") (A') (A') (A') (A") (A') (A')
                 (A") (A') (A") (A') (A") (A") (A') (A') (A") (A')
                 (A") (A') (A') (A") (A') (A') (A") (A') (A") (A')
                 (A") (A') (A") (A') (A") (A') (A') (A') (A") (A')
                 (A') (A') (A") (A") (A') (A') (A") (A') (A') (A")
                 (A') (A') (A") (A') (A') (A') (A") (A") (A') (A')
                 (A") (A') (A") (A') (A") (A') (A') (A") (A') (A")
                 (A') (A") (A") (A') (A') (A') (A") (A') (A") (A")
                 (A') (A") (A') (A") (A') (A') (A") (A') (A') (A")
                 (A') (A') (A") (A") (A') (A") (A') (A") (A') (A')
                 (A") (A') (A') (A') (A') (A') (A") (A') (A') (A")
                 (A') (A') (A") (A') (A") (A") (A") (A') (A') (A")
                 (A') (A") (A') (A') (A") (A') (A") (A') (A') (A')
                 (A") (A') (A') (A')
 ExpMin= 2.53D-02 ExpMax= 1.53D+04 ExpMxC= 5.22D+02 IAcc=3 IRadAn=         5 AccDes= 0.00D+00
 Harris functional with IExCor=  205 and IRadAn=       5 diagonalized for initial guess.
 HarFok:  IExCor=  205 AccDes= 0.00D+00 IRadAn=         5 IDoV= 1 UseB2=F ITyADJ=14
 ICtDFT=  3500011 ScaDFX=  1.000000  1.000000  1.000000  1.000000
 FoFCou: FMM=F IPFlag=           0 FMFlag=      100000 FMFlg1=           0
         NFxFlg=           0 DoJE=T BraDBF=F KetDBF=T FulRan=T
         wScrn=  0.000000 ICntrl=       500 IOpCl=  0 I1Cent=   200000004 NGrid=           0
         NMat0=    1 NMatS0=      1 NMatT0=    0 NMatD0=    1 NMtDS0=    0 NMtDT0=    0
 Petite list used in FoFCou.
 Keep R1 ints in memory in symmetry-blocked form, NReq=217645660.
 Requested convergence on RMS density matrix=1.00D-08 within 128 cycles.
 Requested convergence on MAX density matrix=1.00D-06.
 Requested convergence on             energy=1.00D-06.
 No special actions if energy rises.
 SCF Done:  E(RHF) =  -152.125986949     A.U. after   10 cycles
            NFock= 10  Conv=0.31D-08     -V/T= 2.0015
 ExpMin= 2.53D-02 ExpMax= 1.53D+04 ExpMxC= 5.22D+02 IAcc=3 IRadAn=         5 AccDes= 0.00D+00
 HarFok:  IExCor=  205 AccDes= 0.00D+00 IRadAn=         5 IDoV=-2 UseB2=F ITyADJ=14
 ICtDFT= 12500011 ScaDFX=  1.000000  1.000000  1.000000  1.000000
 Range of M.O.s used for correlation:     3   184
 NBasis=   184 NAE=    10 NBE=    10 NFC=     2 NFV=     0
 NROrb=    182 NOA=     8 NOB=     8 NVA=   174 NVB=   174

 **** Warning!!: The largest alpha MO coefficient is  0.19596223D+02

 Fully direct method using O(ONN) memory.
 JobTyp=1 Pass  1:  I=   3 to  10 NPSUse= 28 ParTrn=T ParDer=T DoDerP=T.
 Spin components of T(2) and E(2):
     alpha-alpha T2 =       0.1647564953D-01 E2=     -0.6587650751D-01
     alpha-beta  T2 =       0.9475701842D-01 E2=     -0.4083105054D+00
     beta-beta   T2 =       0.1647564953D-01 E2=     -0.6587650751D-01
 ANorm=    0.1061936117D+01
 E2 =    -0.5400635205D+00 EUMP2 =    -0.15266605046931D+03
          IDoAtm=111111
          Differentiating once with respect to electric field.
                with respect to dipole field.
          Differentiating once with respect to nuclear coordinates.
 Keep R1 ints in memory in symmetry-blocked form, NReq=217646876.
          There are     1 degrees of freedom in the 1st order CPHF.  IDoFFX=0 NUNeed=     1.
 LinEq1:  Iter=  0 NonCon=     1 RMS=3.34D-03 Max=4.81D-02 NDo=     1
 AX will form     1 AO Fock derivatives at one time.
 LinEq1:  Iter=  1 NonCon=     1 RMS=4.27D-04 Max=4.53D-03 NDo=     1
 LinEq1:  Iter=  2 NonCon=     1 RMS=1.41D-04 Max=1.65D-03 NDo=     1
 LinEq1:  Iter=  3 NonCon=     1 RMS=4.18D-05 Max=2.76D-04 NDo=     1
 LinEq1:  Iter=  4 NonCon=     1 RMS=5.57D-06 Max=4.12D-05 NDo=     1
 LinEq1:  Iter=  5 NonCon=     1 RMS=1.10D-06 Max=9.02D-06 NDo=     1
 LinEq1:  Iter=  6 NonCon=     1 RMS=2.69D-07 Max=2.87D-06 NDo=     1
 LinEq1:  Iter=  7 NonCon=     1 RMS=1.17D-07 Max=1.30D-06 NDo=     1
 LinEq1:  Iter=  8 NonCon=     1 RMS=1.52D-08 Max=1.06D-07 NDo=     1
 LinEq1:  Iter=  9 NonCon=     1 RMS=2.18D-09 Max=2.09D-08 NDo=     1
 LinEq1:  Iter= 10 NonCon=     1 RMS=4.04D-10 Max=2.93D-09 NDo=     1
 LinEq1:  Iter= 11 NonCon=     0 RMS=6.57D-11 Max=6.93D-10 NDo=     1
 Linear equations converged to 1.000D-10 1.000D-09 after    11 iterations.
 End of Minotr F.D. properties file   721 does not exist.
 End of Minotr F.D. properties file   722 does not exist.
 End of Minotr F.D. properties file   788 does not exist.
 Calling FoFJK, ICntrl=  10002127 FMM=F ISym2X=1 I1Cent= 0 IOpClX= 0 NMat=1 NMatS=1 NMatT=0.
 ***** Axes restored to original set *****
 -------------------------------------------------------------------
 Center     Atomic                   Forces (Hartrees/Bohr)
 Number     Number              X              Y              Z
 -------------------------------------------------------------------
      1        8           0.003390543    0.000000000    0.000116009
      2        1          -0.002647484    0.000000000    0.001088016
      3        8          -0.000996740    0.000000000   -0.000960427
      4        1           0.000063678   -0.000000000   -0.000726336
      5        1           0.000095001   -0.002049915    0.000241369
      6        1           0.000095001    0.002049915    0.000241369
 -------------------------------------------------------------------
 Cartesian Forces:  Max     0.003390543 RMS     0.001305727
 -----------------------------------------------------------------------------------------------
                       Internal Coordinate Forces (Hartree/Bohr or radian)
  Cent   Atom   N1       Length/X         N2         Alpha/Y        N3         Beta/Z          J
 -----------------------------------------------------------------------------------------------
      1  O 
         X        1   0.000000(     1)
      2  H        1  -0.002647(     2)      2  -0.002202(     7)
      3  O        1  -0.000807(     3)      2   0.002202(     8)      3   0.000000(    12)     0
      4  H        1  -0.000720(     4)      3   0.000205(     9)      2   0.000000(    13)     0
      5  H        4   0.001520(     5)      1  -0.000833(    10)      5  -0.002255(    14)     0
      6  H        4   0.001520(     6)      1  -0.000833(    11)      5   0.002255(    15)     0
 -----------------------------------------------------------------------------------------------
 Internal  Forces:  Max     0.002647484 RMS     0.001507615

 GradGradGradGradGradGradGradGradGradGradGradGradGradGradGradGradGradGrad
 Berny optimization.
 Search for a local minimum.
 Step number   2 out of a maximum of  100
 All quantities printed in internal units (Hartrees-Bohrs-Radians)
 Update second derivatives using D2CorN and points    1    2
 DE= -5.53D-03 DEPred=-5.52D-03 R= 1.00D+00
 TightC=F SS=  1.41D+00  RLast= 1.41D-01 DXNew= 5.0454D-01 4.2388D-01
 Trust test= 1.00D+00 RLast= 1.41D-01 DXMaxT set to 4.24D-01
 The second derivative matrix:
                          Roh       Roo       R1        A1        R2
           Roh          0.47126
           Roo         -0.00310   0.01741
           R1          -0.00366  -0.00030   0.47714
           A1          -0.00040   0.00045   0.00078   0.32038
           R2           0.00148   0.00482   0.00714   0.00254   0.96779
           A2          -0.00214  -0.00230  -0.00313  -0.00084  -0.00349
           D1          -0.00416  -0.00665  -0.00943  -0.00294  -0.01459
                          A2        D1
           A2           0.48716
           D1           0.26498   0.44112
 ITU=  1  0
     Eigenvalues ---    0.01725   0.19802   0.32037   0.46931   0.47875
     Eigenvalues ---    0.72988   0.96869
 RFO step:  Lambda=-1.22678815D-04 EMin= 1.72458253D-02
 Quartic linear search produced a step of -0.01907.
 Variable       Old X    -DE/DX   Delta X   Delta X   Delta X     New X
                                 (Linear)    (Quad)   (Total)
   Roh        1.83512  -0.00265   0.00104  -0.00724  -0.00620   1.82893
   Roo        5.61483  -0.00081   0.00104  -0.05685  -0.05582   5.55901
    R1        1.81669  -0.00072   0.00139  -0.00344  -0.00204   1.81465
    A1        1.81394   0.00021   0.00036   0.00015   0.00051   1.81445
    R2        1.81666   0.00304   0.00139   0.00174   0.00314   1.81980
    A2        1.92369  -0.00167  -0.00007   0.00337   0.00329   1.92698
    D1        2.14910  -0.00451  -0.00104  -0.01174  -0.01278   2.13632
         Item               Value     Threshold  Converged?
 Maximum Force            0.004509     0.000015     NO 
 RMS     Force            0.002407     0.000010     NO 
 Maximum Displacement     0.055816     0.000060     NO 
 RMS     Displacement     0.021851     0.000040     NO 
 Predicted change in Energy=-6.155575D-05
 GradGradGradGradGradGradGradGradGradGradGradGradGradGradGradGradGradGrad

 ---------------------------------------------------------------------------------------------------
                            Z-MATRIX (ANGSTROMS AND DEGREES)
   CD    Cent   Atom    N1       Length/X        N2       Alpha/Y        N3        Beta/Z          J
 ---------------------------------------------------------------------------------------------------
      1      1  O 
      2         X        1   1.000000(     1)
      3      2  H        1   0.967827(     2)      2   90.000(     7)
      4      3  O        1   2.941703(     3)      2   90.000(     8)      3    0.000(    12)      0
      5      4  H        1   0.960270(     4)      3  103.960(     9)      2    0.000(    13)      0
      6      5  H        4   0.962995(     5)      1  110.408(    10)      5  122.402(    14)      0
      7      6  H        4   0.962995(     6)      1  110.408(    11)      5 -122.402(    15)      0
 ---------------------------------------------------------------------------------------------------
                         Z-Matrix orientation:                         
 ---------------------------------------------------------------------
 Center     Atomic      Atomic             Coordinates (Angstroms)
 Number     Number       Type             X           Y           Z
 ---------------------------------------------------------------------
      1          8           0        0.000000    0.000000    0.000000
      2         -1           0        0.000000    0.000000    1.000000
      3          1           0        0.967827    0.000000    0.000000
      4          8           0        2.941703    0.000000    0.000000
      5          1           0       -0.231661    0.000000    0.931907
      6          1           0        3.277500   -0.762032   -0.483640
      7          1           0        3.277500    0.762032   -0.483640
 ---------------------------------------------------------------------
                    Distance matrix (angstroms):
                    1          2          3          4          5
     1  O    0.000000
     2  X    1.000000   0.000000
     3  H    0.967827   1.391650   0.000000
     4  O    2.941703   3.107027   1.973875   0.000000
     5  H    0.960270   0.241461   1.518954   3.307368   0.000000
     6  H    3.399501   3.677483   2.479755   0.962995   3.859880
     7  H    3.399501   3.677483   2.479755   0.962995   3.859880
                    6          7
     6  H    0.000000
     7  H    1.524063   0.000000
 Stoichiometry    H4O2
 Framework group  CS[SG(H2O2),X(H2)]
 Deg. of freedom     8
 Full point group                 CS      NOp   2
 Largest Abelian subgroup         CS      NOp   2
 Largest concise Abelian subgroup CS      NOp   2
                         Standard orientation:                         
 ---------------------------------------------------------------------
 Center     Atomic      Atomic             Coordinates (Angstroms)
 Number     Number       Type             X           Y           Z
 ---------------------------------------------------------------------
      1          8           0        0.001769    1.541239   -0.000000
      2          1           0        0.001769    0.573412   -0.000000
      3          8           0        0.001769   -1.400463    0.000000
      4          1           0        0.933676    1.772900   -0.000000
      5          1           0       -0.481871   -1.736260    0.762032
      6          1           0       -0.481871   -1.736260   -0.762032
 ---------------------------------------------------------------------
 Rotational constants (GHZ):         213.0625062           6.2997587           6.2973229
 Standard basis: Aug-CC-pVTZ (5D, 7F)
 There are   135 symmetry adapted cartesian basis functions of A'  symmetry.
 There are    75 symmetry adapted cartesian basis functions of A"  symmetry.
 There are   115 symmetry adapted basis functions of A'  symmetry.
 There are    69 symmetry adapted basis functions of A"  symmetry.
   184 basis functions,   252 primitive gaussians,   210 cartesian basis functions
    10 alpha electrons       10 beta electrons
       nuclear repulsion energy        36.3996636759 Hartrees.
 NAtoms=    6 NActive=    6 NUniq=    5 SFac= 1.44D+00 NAtFMM=   60 NAOKFM=F Big=F
 Integral buffers will be    131072 words long.
 Raffenetti 1 integral format.
 Two-electron integral symmetry is turned on.
 One-electron integrals computed using PRISM.
 NBasis=   184 RedAO= T EigKep=  2.37D-04  NBF=   115    69
 NBsUse=   184 1.00D-06 EigRej= -1.00D+00 NBFU=   115    69
 Initial guess from the checkpoint file:  "/gscratch/scrubbed/gds001/Gau-24731.chk"
 B after Tr=     0.000000   -0.000000   -0.000000
         Rot=    1.000000   -0.000000   -0.000000   -0.000114 Ang=  -0.01 deg.
 Initial guess orbital symmetries:
       Occupied  (A') (A') (A') (A') (A") (A') (A') (A') (A') (A")
       Virtual   (A') (A") (A') (A') (A') (A') (A') (A") (A") (A')
                 (A') (A") (A') (A') (A") (A') (A') (A") (A") (A')
                 (A') (A') (A") (A') (A') (A") (A') (A') (A") (A')
                 (A') (A') (A") (A') (A") (A") (A') (A') (A") (A')
                 (A') (A') (A") (A') (A") (A') (A") (A') (A') (A')
                 (A") (A') (A") (A') (A") (A") (A') (A') (A") (A')
                 (A") (A') (A') (A") (A') (A') (A") (A') (A') (A")
                 (A") (A') (A") (A') (A') (A") (A') (A') (A") (A')
                 (A') (A') (A") (A") (A') (A') (A") (A') (A') (A")
                 (A') (A') (A") (A') (A') (A") (A') (A') (A") (A')
                 (A") (A') (A") (A') (A") (A') (A') (A') (A") (A")
                 (A') (A") (A') (A') (A") (A') (A") (A') (A") (A')
                 (A") (A') (A') (A") (A") (A') (A") (A') (A') (A')
                 (A") (A') (A") (A") (A') (A") (A") (A') (A') (A')
                 (A") (A') (A') (A') (A') (A') (A") (A') (A") (A')
                 (A') (A') (A") (A') (A") (A") (A") (A') (A") (A')
                 (A') (A") (A') (A") (A') (A') (A') (A") (A') (A')
                 (A') (A") (A') (A')
 ExpMin= 2.53D-02 ExpMax= 1.53D+04 ExpMxC= 5.22D+02 IAcc=3 IRadAn=         5 AccDes= 0.00D+00
 Harris functional with IExCor=  205 and IRadAn=       5 diagonalized for initial guess.
 HarFok:  IExCor=  205 AccDes= 0.00D+00 IRadAn=         5 IDoV= 1 UseB2=F ITyADJ=14
 ICtDFT=  3500011 ScaDFX=  1.000000  1.000000  1.000000  1.000000
 FoFCou: FMM=F IPFlag=           0 FMFlag=      100000 FMFlg1=           0
         NFxFlg=           0 DoJE=T BraDBF=F KetDBF=T FulRan=T
         wScrn=  0.000000 ICntrl=       500 IOpCl=  0 I1Cent=   200000004 NGrid=           0
         NMat0=    1 NMatS0=      1 NMatT0=    0 NMatD0=    1 NMtDS0=    0 NMtDT0=    0
 Petite list used in FoFCou.
 Keep R1 ints in memory in symmetry-blocked form, NReq=217645660.
 Requested convergence on RMS density matrix=1.00D-08 within 128 cycles.
 Requested convergence on MAX density matrix=1.00D-06.
 Requested convergence on             energy=1.00D-06.
 No special actions if energy rises.
 SCF Done:  E(RHF) =  -152.126073369     A.U. after    9 cycles
            NFock=  9  Conv=0.23D-08     -V/T= 2.0015
 ExpMin= 2.53D-02 ExpMax= 1.53D+04 ExpMxC= 5.22D+02 IAcc=3 IRadAn=         5 AccDes= 0.00D+00
 HarFok:  IExCor=  205 AccDes= 0.00D+00 IRadAn=         5 IDoV=-2 UseB2=F ITyADJ=14
 ICtDFT= 12500011 ScaDFX=  1.000000  1.000000  1.000000  1.000000
 Range of M.O.s used for correlation:     3   184
 NBasis=   184 NAE=    10 NBE=    10 NFC=     2 NFV=     0
 NROrb=    182 NOA=     8 NOB=     8 NVA=   174 NVB=   174

 **** Warning!!: The largest alpha MO coefficient is  0.19569260D+02

 Fully direct method using O(ONN) memory.
 JobTyp=1 Pass  1:  I=   3 to  10 NPSUse= 28 ParTrn=T ParDer=T DoDerP=T.
 Spin components of T(2) and E(2):
     alpha-alpha T2 =       0.1646976829D-01 E2=     -0.6589054714D-01
     alpha-beta  T2 =       0.9468351687D-01 E2=     -0.4082637160D+00
     beta-beta   T2 =       0.1646976829D-01 E2=     -0.6589054714D-01
 ANorm=    0.1061895971D+01
 E2 =    -0.5400448103D+00 EUMP2 =    -0.15266611817932D+03
          IDoAtm=111111
          Differentiating once with respect to electric field.
                with respect to dipole field.
          Differentiating once with respect to nuclear coordinates.
 Keep R1 ints in memory in symmetry-blocked form, NReq=217646876.
          There are     1 degrees of freedom in the 1st order CPHF.  IDoFFX=0 NUNeed=     1.
 LinEq1:  Iter=  0 NonCon=     1 RMS=3.34D-03 Max=4.77D-02 NDo=     1
 AX will form     1 AO Fock derivatives at one time.
 LinEq1:  Iter=  1 NonCon=     1 RMS=4.25D-04 Max=4.54D-03 NDo=     1
 LinEq1:  Iter=  2 NonCon=     1 RMS=1.40D-04 Max=1.64D-03 NDo=     1
 LinEq1:  Iter=  3 NonCon=     1 RMS=4.16D-05 Max=3.07D-04 NDo=     1
 LinEq1:  Iter=  4 NonCon=     1 RMS=5.52D-06 Max=4.18D-05 NDo=     1
 LinEq1:  Iter=  5 NonCon=     1 RMS=1.08D-06 Max=8.15D-06 NDo=     1
 LinEq1:  Iter=  6 NonCon=     1 RMS=2.13D-07 Max=2.00D-06 NDo=     1
 LinEq1:  Iter=  7 NonCon=     1 RMS=9.08D-08 Max=1.00D-06 NDo=     1
 LinEq1:  Iter=  8 NonCon=     1 RMS=1.51D-08 Max=1.02D-07 NDo=     1
 LinEq1:  Iter=  9 NonCon=     1 RMS=2.28D-09 Max=2.07D-08 NDo=     1
 LinEq1:  Iter= 10 NonCon=     1 RMS=4.43D-10 Max=3.15D-09 NDo=     1
 LinEq1:  Iter= 11 NonCon=     0 RMS=6.67D-11 Max=6.84D-10 NDo=     1
 Linear equations converged to 1.000D-10 1.000D-09 after    11 iterations.
 End of Minotr F.D. properties file   721 does not exist.
 End of Minotr F.D. properties file   722 does not exist.
 End of Minotr F.D. properties file   788 does not exist.
 Calling FoFJK, ICntrl=  10002127 FMM=F ISym2X=1 I1Cent= 0 IOpClX= 0 NMat=1 NMatS=1 NMatT=0.
 ***** Axes restored to original set *****
 -------------------------------------------------------------------
 Center     Atomic                   Forces (Hartrees/Bohr)
 Number     Number              X              Y              Z
 -------------------------------------------------------------------
      1        8           0.000122564   -0.000000000   -0.000716343
      2        1           0.000575364    0.000000000    0.000976915
      3        8          -0.000488101    0.000000000   -0.001088861
      4        1          -0.000325826   -0.000000000    0.000232776
      5        1           0.000057999    0.000708474    0.000297757
      6        1           0.000057999   -0.000708474    0.000297757
 -------------------------------------------------------------------
 Cartesian Forces:  Max     0.001088861 RMS     0.000504739
 -----------------------------------------------------------------------------------------------
                       Internal Coordinate Forces (Hartree/Bohr or radian)
  Cent   Atom   N1       Length/X         N2         Alpha/Y        N3         Beta/Z          J
 -----------------------------------------------------------------------------------------------
      1  O 
         X        1   0.000000(     1)
      2  H        1   0.000575(     2)      2  -0.002259(     7)
      3  O        1  -0.000372(     3)      2   0.002259(     8)      3   0.000000(    12)     0
      4  H        1   0.000305(     4)      3   0.000472(     9)      2   0.000000(    13)     0
      5  H        4  -0.000690(     5)      1   0.000580(    10)      5   0.000219(    14)     0
      6  H        4  -0.000690(     6)      1   0.000580(    11)      5  -0.000219(    15)     0
 -----------------------------------------------------------------------------------------------
 Internal  Forces:  Max     0.002258619 RMS     0.000920416

 GradGradGradGradGradGradGradGradGradGradGradGradGradGradGradGradGradGrad
 Berny optimization.
 Search for a local minimum.
 Step number   3 out of a maximum of  100
 All quantities printed in internal units (Hartrees-Bohrs-Radians)
 Update second derivatives using D2CorN and points    1    2    3
 DE= -6.77D-05 DEPred=-6.16D-05 R= 1.10D+00
 TightC=F SS=  1.41D+00  RLast= 5.78D-02 DXNew= 7.1288D-01 1.7344D-01
 Trust test= 1.10D+00 RLast= 5.78D-02 DXMaxT set to 4.24D-01
 The second derivative matrix:
                          Roh       Roo       R1        A1        R2
           Roh          0.47027
           Roo         -0.00037   0.01078
           R1          -0.00514   0.00037   0.47588
           A1           0.00005   0.00453   0.00127   0.32060
           R2          -0.00193  -0.00857   0.00529   0.00284   0.96803
           A2          -0.00093   0.00805  -0.00242  -0.00107  -0.00285
           D1          -0.00280  -0.00348  -0.00987  -0.00293  -0.01884
                          A2        D1
           A2           0.48596
           D1           0.26673   0.44554
 ITU=  1  1  0
     Eigenvalues ---    0.01027   0.19829   0.32064   0.46711   0.47880
     Eigenvalues ---    0.73262   0.96933
 RFO step:  Lambda=-2.39424159D-05 EMin= 1.02690146D-02
 Quartic linear search produced a step of  0.09404.
 Variable       Old X    -DE/DX   Delta X   Delta X   Delta X     New X
                                 (Linear)    (Quad)   (Total)
   Roh        1.82893   0.00058  -0.00058   0.00184   0.00126   1.83019
   Roo        5.55901  -0.00037  -0.00525  -0.03633  -0.04158   5.51743
    R1        1.81465   0.00030  -0.00019   0.00092   0.00072   1.81537
    A1        1.81445   0.00047   0.00005   0.00209   0.00213   1.81658
    R2        1.81980  -0.00138   0.00030  -0.00218  -0.00189   1.81791
    A2        1.92698   0.00116   0.00031   0.00388   0.00419   1.93117
    D1        2.13632   0.00044  -0.00120  -0.00063  -0.00183   2.13449
         Item               Value     Threshold  Converged?
 Maximum Force            0.001380     0.000015     NO 
 RMS     Force            0.000777     0.000010     NO 
 Maximum Displacement     0.041579     0.000060     NO 
 RMS     Displacement     0.015856     0.000040     NO 
 Predicted change in Energy=-1.163376D-05
 GradGradGradGradGradGradGradGradGradGradGradGradGradGradGradGradGradGrad

 ---------------------------------------------------------------------------------------------------
                            Z-MATRIX (ANGSTROMS AND DEGREES)
   CD    Cent   Atom    N1       Length/X        N2       Alpha/Y        N3        Beta/Z          J
 ---------------------------------------------------------------------------------------------------
      1      1  O 
      2         X        1   1.000000(     1)
      3      2  H        1   0.968495(     2)      2   90.000(     7)
      4      3  O        1   2.919700(     3)      2   90.000(     8)      3    0.000(    12)      0
      5      4  H        1   0.960653(     4)      3  104.082(     9)      2    0.000(    13)      0
      6      5  H        4   0.961995(     5)      1  110.648(    10)      5  122.297(    14)      0
      7      6  H        4   0.961995(     6)      1  110.648(    11)      5 -122.297(    15)      0
 ---------------------------------------------------------------------------------------------------
                         Z-Matrix orientation:                         
 ---------------------------------------------------------------------
 Center     Atomic      Atomic             Coordinates (Angstroms)
 Number     Number       Type             X           Y           Z
 ---------------------------------------------------------------------
      1          8           0        0.000000    0.000000    0.000000
      2         -1           0        0.000000    0.000000    1.000000
      3          1           0        0.968495    0.000000    0.000000
      4          8           0        2.919700    0.000000    0.000000
      5          1           0       -0.233742    0.000000    0.931783
      6          1           0        3.258922   -0.760928   -0.480990
      7          1           0        3.258922    0.760928   -0.480990
 ---------------------------------------------------------------------
                    Distance matrix (angstroms):
                    1          2          3          4          5
     1  O    0.000000
     2  X    1.000000   0.000000
     3  H    0.968495   1.392114   0.000000
     4  O    2.919700   3.086203   1.951205   0.000000
     5  H    0.960653   0.243493   1.521050   3.288224   0.000000
     6  H    3.380967   3.659633   2.460979   0.961995   3.843649
     7  H    3.380967   3.659633   2.460979   0.961995   3.843649
                    6          7
     6  H    0.000000
     7  H    1.521857   0.000000
 Stoichiometry    H4O2
 Framework group  CS[SG(H2O2),X(H2)]
 Deg. of freedom     8
 Full point group                 CS      NOp   2
 Largest Abelian subgroup         CS      NOp   2
 Largest concise Abelian subgroup CS      NOp   2
                         Standard orientation:                         
 ---------------------------------------------------------------------
 Center     Atomic      Atomic             Coordinates (Angstroms)
 Number     Number       Type             X           Y           Z
 ---------------------------------------------------------------------
      1          8           0        0.001510    1.530510    0.000000
      2          1           0        0.001510    0.562015    0.000000
      3          8           0        0.001510   -1.389190   -0.000000
      4          1           0        0.933292    1.764252    0.000000
      5          1           0       -0.479480   -1.728412    0.760928
      6          1           0       -0.479480   -1.728412   -0.760928
 ---------------------------------------------------------------------
 Rotational constants (GHZ):         213.8447002           6.3899737           6.3876212
 Standard basis: Aug-CC-pVTZ (5D, 7F)
 There are   135 symmetry adapted cartesian basis functions of A'  symmetry.
 There are    75 symmetry adapted cartesian basis functions of A"  symmetry.
 There are   115 symmetry adapted basis functions of A'  symmetry.
 There are    69 symmetry adapted basis functions of A"  symmetry.
   184 basis functions,   252 primitive gaussians,   210 cartesian basis functions
    10 alpha electrons       10 beta electrons
       nuclear repulsion energy        36.5412491197 Hartrees.
 NAtoms=    6 NActive=    6 NUniq=    5 SFac= 1.44D+00 NAtFMM=   60 NAOKFM=F Big=F
 Integral buffers will be    131072 words long.
 Raffenetti 1 integral format.
 Two-electron integral symmetry is turned on.
 One-electron integrals computed using PRISM.
 NBasis=   184 RedAO= T EigKep=  2.37D-04  NBF=   115    69
 NBsUse=   184 1.00D-06 EigRej= -1.00D+00 NBFU=   115    69
 Initial guess from the checkpoint file:  "/gscratch/scrubbed/gds001/Gau-24731.chk"
 B after Tr=    -0.000000    0.000000   -0.000000
         Rot=    1.000000    0.000000    0.000000    0.000069 Ang=   0.01 deg.
 Initial guess orbital symmetries:
       Occupied  (A') (A') (A') (A') (A") (A') (A') (A') (A') (A")
       Virtual   (A') (A") (A') (A') (A') (A') (A') (A") (A") (A')
                 (A') (A") (A') (A') (A") (A') (A') (A") (A") (A')
                 (A') (A') (A") (A') (A') (A") (A') (A') (A") (A')
                 (A') (A') (A") (A') (A") (A") (A') (A') (A") (A')
                 (A') (A') (A") (A') (A") (A') (A") (A') (A') (A')
                 (A") (A') (A") (A') (A") (A") (A') (A') (A") (A')
                 (A") (A') (A') (A") (A') (A') (A") (A') (A') (A")
                 (A") (A') (A") (A') (A') (A") (A') (A') (A") (A')
                 (A') (A') (A") (A") (A') (A') (A") (A') (A') (A")
                 (A') (A') (A") (A') (A') (A") (A') (A") (A') (A')
                 (A") (A") (A') (A') (A") (A') (A') (A') (A") (A")
                 (A') (A") (A') (A') (A") (A') (A") (A') (A") (A')
                 (A") (A') (A') (A") (A") (A') (A") (A') (A') (A')
                 (A") (A') (A") (A") (A') (A") (A") (A') (A') (A')
                 (A") (A') (A') (A') (A') (A') (A") (A') (A") (A')
                 (A') (A') (A") (A') (A") (A") (A") (A') (A') (A")
                 (A') (A") (A') (A") (A') (A') (A') (A") (A') (A')
                 (A") (A') (A') (A')
 ExpMin= 2.53D-02 ExpMax= 1.53D+04 ExpMxC= 5.22D+02 IAcc=3 IRadAn=         5 AccDes= 0.00D+00
 Harris functional with IExCor=  205 and IRadAn=       5 diagonalized for initial guess.
 HarFok:  IExCor=  205 AccDes= 0.00D+00 IRadAn=         5 IDoV= 1 UseB2=F ITyADJ=14
 ICtDFT=  3500011 ScaDFX=  1.000000  1.000000  1.000000  1.000000
 FoFCou: FMM=F IPFlag=           0 FMFlag=      100000 FMFlg1=           0
         NFxFlg=           0 DoJE=T BraDBF=F KetDBF=T FulRan=T
         wScrn=  0.000000 ICntrl=       500 IOpCl=  0 I1Cent=   200000004 NGrid=           0
         NMat0=    1 NMatS0=      1 NMatT0=    0 NMatD0=    1 NMtDS0=    0 NMtDT0=    0
 Petite list used in FoFCou.
 Keep R1 ints in memory in symmetry-blocked form, NReq=217645660.
 Requested convergence on RMS density matrix=1.00D-08 within 128 cycles.
 Requested convergence on MAX density matrix=1.00D-06.
 Requested convergence on             energy=1.00D-06.
 No special actions if energy rises.
 SCF Done:  E(RHF) =  -152.126035202     A.U. after    8 cycles
            NFock=  8  Conv=0.32D-08     -V/T= 2.0015
 ExpMin= 2.53D-02 ExpMax= 1.53D+04 ExpMxC= 5.22D+02 IAcc=3 IRadAn=         5 AccDes= 0.00D+00
 HarFok:  IExCor=  205 AccDes= 0.00D+00 IRadAn=         5 IDoV=-2 UseB2=F ITyADJ=14
 ICtDFT= 12500011 ScaDFX=  1.000000  1.000000  1.000000  1.000000
 Range of M.O.s used for correlation:     3   184
 NBasis=   184 NAE=    10 NBE=    10 NFC=     2 NFV=     0
 NROrb=    182 NOA=     8 NOB=     8 NVA=   174 NVB=   174

 **** Warning!!: The largest alpha MO coefficient is  0.19495835D+02

 Fully direct method using O(ONN) memory.
 JobTyp=1 Pass  1:  I=   3 to  10 NPSUse= 28 ParTrn=T ParDer=T DoDerP=T.
 Spin components of T(2) and E(2):
     alpha-alpha T2 =       0.1647028730D-01 E2=     -0.6591357243D-01
     alpha-beta  T2 =       0.9464196559D-01 E2=     -0.4082691525D+00
     beta-beta   T2 =       0.1647028730D-01 E2=     -0.6591357243D-01
 ANorm=    0.1061876895D+01
 E2 =    -0.5400962974D+00 EUMP2 =    -0.15266613149952D+03
          IDoAtm=111111
          Differentiating once with respect to electric field.
                with respect to dipole field.
          Differentiating once with respect to nuclear coordinates.
 Keep R1 ints in memory in symmetry-blocked form, NReq=217646876.
          There are     1 degrees of freedom in the 1st order CPHF.  IDoFFX=0 NUNeed=     1.
 LinEq1:  Iter=  0 NonCon=     1 RMS=3.34D-03 Max=4.76D-02 NDo=     1
 AX will form     1 AO Fock derivatives at one time.
 LinEq1:  Iter=  1 NonCon=     1 RMS=4.24D-04 Max=4.53D-03 NDo=     1
 LinEq1:  Iter=  2 NonCon=     1 RMS=1.38D-04 Max=1.62D-03 NDo=     1
 LinEq1:  Iter=  3 NonCon=     1 RMS=4.15D-05 Max=3.29D-04 NDo=     1
 LinEq1:  Iter=  4 NonCon=     1 RMS=5.50D-06 Max=4.09D-05 NDo=     1
 LinEq1:  Iter=  5 NonCon=     1 RMS=1.09D-06 Max=8.57D-06 NDo=     1
 LinEq1:  Iter=  6 NonCon=     1 RMS=2.34D-07 Max=2.33D-06 NDo=     1
 LinEq1:  Iter=  7 NonCon=     1 RMS=1.04D-07 Max=1.16D-06 NDo=     1
 LinEq1:  Iter=  8 NonCon=     1 RMS=1.52D-08 Max=1.05D-07 NDo=     1
 LinEq1:  Iter=  9 NonCon=     1 RMS=2.34D-09 Max=2.07D-08 NDo=     1
 LinEq1:  Iter= 10 NonCon=     1 RMS=4.63D-10 Max=3.28D-09 NDo=     1
 LinEq1:  Iter= 11 NonCon=     0 RMS=6.88D-11 Max=6.76D-10 NDo=     1
 Linear equations converged to 1.000D-10 1.000D-09 after    11 iterations.
 End of Minotr F.D. properties file   721 does not exist.
 End of Minotr F.D. properties file   722 does not exist.
 End of Minotr F.D. properties file   788 does not exist.
 Calling FoFJK, ICntrl=  10002127 FMM=F ISym2X=1 I1Cent= 0 IOpClX= 0 NMat=1 NMatS=1 NMatT=0.
 ***** Axes restored to original set *****
 -------------------------------------------------------------------
 Center     Atomic                   Forces (Hartrees/Bohr)
 Number     Number              X              Y              Z
 -------------------------------------------------------------------
      1        8           0.000108257    0.000000000   -0.000480987
      2        1          -0.000054726   -0.000000000    0.001186598
      3        8          -0.000680153   -0.000000000   -0.000292503
      4        1          -0.000060153    0.000000000   -0.000190312
      5        1           0.000343387   -0.000244202   -0.000111398
      6        1           0.000343387    0.000244202   -0.000111398
 -------------------------------------------------------------------
 Cartesian Forces:  Max     0.001186598 RMS     0.000381663
 -----------------------------------------------------------------------------------------------
                       Internal Coordinate Forces (Hartree/Bohr or radian)
  Cent   Atom   N1       Length/X         N2         Alpha/Y        N3         Beta/Z          J
 -----------------------------------------------------------------------------------------------
      1  O 
         X        1   0.000000(     1)
      2  H        1  -0.000055(     2)      2  -0.002362(     7)
      3  O        1   0.000007(     3)      2   0.002362(     8)      3  -0.000000(    12)     0
      4  H        1  -0.000170(     4)      3   0.000190(     9)      2  -0.000000(    13)     0
      5  H        4   0.000370(     5)      1   0.000414(    10)      5  -0.000062(    14)     0
      6  H        4   0.000370(     6)      1   0.000414(    11)      5   0.000062(    15)     0
 -----------------------------------------------------------------------------------------------
 Internal  Forces:  Max     0.002361713 RMS     0.000888701

 GradGradGradGradGradGradGradGradGradGradGradGradGradGradGradGradGradGrad
 Berny optimization.
 Search for a local minimum.
 Step number   4 out of a maximum of  100
 All quantities printed in internal units (Hartrees-Bohrs-Radians)
 Update second derivatives using D2CorN and points    1    2    3    4
 DE= -1.33D-05 DEPred=-1.16D-05 R= 1.14D+00
 TightC=F SS=  1.41D+00  RLast= 4.20D-02 DXNew= 7.1288D-01 1.2585D-01
 Trust test= 1.14D+00 RLast= 4.20D-02 DXMaxT set to 4.24D-01
 The second derivative matrix:
                          Roh       Roo       R1        A1        R2
           Roh          0.46910
           Roo         -0.00016   0.01147
           R1          -0.00631  -0.00143   0.47500
           A1          -0.00003   0.00814   0.00135   0.32040
           R2          -0.00175   0.00062   0.00638   0.00305   0.97215
           A2          -0.00074   0.02200  -0.00223  -0.00191  -0.00346
           D1          -0.00286  -0.00489  -0.01085  -0.00293  -0.02109
                          A2        D1
           A2           0.48349
           D1           0.26820   0.44759
 ITU=  1  1  1  0
     Eigenvalues ---    0.00919   0.19819   0.32058   0.46498   0.47887
     Eigenvalues ---    0.73369   0.97370
 RFO step:  Lambda=-3.77537670D-06 EMin= 9.18587246D-03
 Quartic linear search produced a step of  0.09732.
 Variable       Old X    -DE/DX   Delta X   Delta X   Delta X     New X
                                 (Linear)    (Quad)   (Total)
   Roh        1.83019  -0.00005   0.00012  -0.00026  -0.00014   1.83005
   Roo        5.51743   0.00001  -0.00405  -0.00328  -0.00732   5.51011
    R1        1.81537  -0.00017   0.00007  -0.00052  -0.00045   1.81492
    A1        1.81658   0.00019   0.00021   0.00058   0.00079   1.81737
    R2        1.81791   0.00074  -0.00018   0.00094   0.00076   1.81866
    A2        1.93117   0.00083   0.00041   0.00303   0.00343   1.93460
    D1        2.13449  -0.00012  -0.00018  -0.00221  -0.00239   2.13210
         Item               Value     Threshold  Converged?
 Maximum Force            0.000827     0.000015     NO 
 RMS     Force            0.000433     0.000010     NO 
 Maximum Displacement     0.007322     0.000060     NO 
 RMS     Displacement     0.003219     0.000040     NO 
 Predicted change in Energy=-1.890202D-06
 GradGradGradGradGradGradGradGradGradGradGradGradGradGradGradGradGradGrad

 ---------------------------------------------------------------------------------------------------
                            Z-MATRIX (ANGSTROMS AND DEGREES)
   CD    Cent   Atom    N1       Length/X        N2       Alpha/Y        N3        Beta/Z          J
 ---------------------------------------------------------------------------------------------------
      1      1  O 
      2         X        1   1.000000(     1)
      3      2  H        1   0.968422(     2)      2   90.000(     7)
      4      3  O        1   2.915826(     3)      2   90.000(     8)      3    0.000(    12)      0
      5      4  H        1   0.960416(     4)      3  104.128(     9)      2    0.000(    13)      0
      6      5  H        4   0.962395(     5)      1  110.845(    10)      5  122.160(    14)      0
      7      6  H        4   0.962395(     6)      1  110.845(    11)      5 -122.160(    15)      0
 ---------------------------------------------------------------------------------------------------
                         Z-Matrix orientation:                         
 ---------------------------------------------------------------------
 Center     Atomic      Atomic             Coordinates (Angstroms)
 Number     Number       Type             X           Y           Z
 ---------------------------------------------------------------------
      1          8           0        0.000000    0.000000    0.000000
      2         -1           0        0.000000    0.000000    1.000000
      3          1           0        0.968422    0.000000    0.000000
      4          8           0        2.915826    0.000000    0.000000
      5          1           0       -0.234419    0.000000    0.931368
      6          1           0        3.258279   -0.761402   -0.478745
      7          1           0        3.258279    0.761402   -0.478745
 ---------------------------------------------------------------------
                    Distance matrix (angstroms):
                    1          2          3          4          5
     1  O    0.000000
     2  X    1.000000   0.000000
     3  H    0.968422   1.392063   0.000000
     4  O    2.915826   3.082538   1.947404   0.000000
     5  H    0.960416   0.244259   1.521273   3.285040   0.000000
     6  H    3.380135   3.658252   2.460158   0.962395   3.842797
     7  H    3.380135   3.658252   2.460158   0.962395   3.842797
                    6          7
     6  H    0.000000
     7  H    1.522804   0.000000
 Stoichiometry    H4O2
 Framework group  CS[SG(H2O2),X(H2)]
 Deg. of freedom     8
 Full point group                 CS      NOp   2
 Largest Abelian subgroup         CS      NOp   2
 Largest concise Abelian subgroup CS      NOp   2
                         Standard orientation:                         
 ---------------------------------------------------------------------
 Center     Atomic      Atomic             Coordinates (Angstroms)
 Number     Number       Type             X           Y           Z
 ---------------------------------------------------------------------
      1          8           0        0.001306    1.528858    0.000000
      2          1           0        0.001306    0.560437    0.000000
      3          8           0        0.001306   -1.386967   -0.000000
      4          1           0        0.932674    1.763277    0.000000
      5          1           0       -0.477439   -1.729421    0.761402
      6          1           0       -0.477439   -1.729421   -0.761402
 ---------------------------------------------------------------------
 Rotational constants (GHZ):         214.1383114           6.4043056           6.4024411
 Standard basis: Aug-CC-pVTZ (5D, 7F)
 There are   135 symmetry adapted cartesian basis functions of A'  symmetry.
 There are    75 symmetry adapted cartesian basis functions of A"  symmetry.
 There are   115 symmetry adapted basis functions of A'  symmetry.
 There are    69 symmetry adapted basis functions of A"  symmetry.
   184 basis functions,   252 primitive gaussians,   210 cartesian basis functions
    10 alpha electrons       10 beta electrons
       nuclear repulsion energy        36.5604612169 Hartrees.
 NAtoms=    6 NActive=    6 NUniq=    5 SFac= 1.44D+00 NAtFMM=   60 NAOKFM=F Big=F
 Integral buffers will be    131072 words long.
 Raffenetti 1 integral format.
 Two-electron integral symmetry is turned on.
 One-electron integrals computed using PRISM.
 NBasis=   184 RedAO= T EigKep=  2.37D-04  NBF=   115    69
 NBsUse=   184 1.00D-06 EigRej= -1.00D+00 NBFU=   115    69
 Initial guess from the checkpoint file:  "/gscratch/scrubbed/gds001/Gau-24731.chk"
 B after Tr=     0.000000   -0.000000   -0.000000
         Rot=    1.000000   -0.000000   -0.000000   -0.000095 Ang=  -0.01 deg.
 Initial guess orbital symmetries:
       Occupied  (A') (A') (A') (A') (A") (A') (A') (A') (A') (A")
       Virtual   (A') (A") (A') (A') (A') (A') (A') (A") (A") (A')
                 (A') (A") (A') (A') (A") (A') (A') (A") (A") (A')
                 (A') (A') (A") (A') (A') (A") (A') (A') (A") (A')
                 (A') (A') (A") (A') (A") (A") (A') (A') (A") (A')
                 (A') (A') (A") (A') (A") (A') (A') (A") (A') (A')
                 (A") (A') (A") (A') (A") (A") (A') (A') (A") (A')
                 (A") (A') (A') (A") (A') (A') (A") (A') (A') (A")
                 (A") (A') (A") (A') (A') (A") (A') (A') (A") (A')
                 (A') (A') (A") (A") (A') (A') (A") (A') (A') (A")
                 (A') (A') (A") (A') (A') (A") (A') (A") (A') (A')
                 (A") (A") (A') (A') (A") (A') (A') (A') (A") (A")
                 (A') (A") (A') (A') (A") (A') (A") (A') (A") (A')
                 (A") (A') (A') (A") (A") (A') (A") (A') (A') (A')
                 (A") (A') (A") (A") (A') (A") (A") (A') (A') (A')
                 (A") (A') (A') (A') (A') (A') (A") (A') (A") (A')
                 (A') (A') (A") (A') (A") (A") (A") (A') (A') (A")
                 (A') (A") (A') (A") (A') (A') (A') (A") (A') (A')
                 (A") (A') (A') (A')
 Keep R1 ints in memory in symmetry-blocked form, NReq=217645660.
 Requested convergence on RMS density matrix=1.00D-08 within 128 cycles.
 Requested convergence on MAX density matrix=1.00D-06.
 Requested convergence on             energy=1.00D-06.
 No special actions if energy rises.
 SCF Done:  E(RHF) =  -152.126010953     A.U. after    7 cycles
            NFock=  7  Conv=0.82D-08     -V/T= 2.0015
 ExpMin= 2.53D-02 ExpMax= 1.53D+04 ExpMxC= 5.22D+02 IAcc=3 IRadAn=         5 AccDes= 0.00D+00
 HarFok:  IExCor=  205 AccDes= 0.00D+00 IRadAn=         5 IDoV=-2 UseB2=F ITyADJ=14
 ICtDFT= 12500011 ScaDFX=  1.000000  1.000000  1.000000  1.000000
 Range of M.O.s used for correlation:     3   184
 NBasis=   184 NAE=    10 NBE=    10 NFC=     2 NFV=     0
 NROrb=    182 NOA=     8 NOB=     8 NVA=   174 NVB=   174

 **** Warning!!: The largest alpha MO coefficient is  0.19474830D+02

 Fully direct method using O(ONN) memory.
 JobTyp=1 Pass  1:  I=   3 to  10 NPSUse= 28 ParTrn=T ParDer=T DoDerP=T.
 Spin components of T(2) and E(2):
     alpha-alpha T2 =       0.1647250746D-01 E2=     -0.6591935551D-01
     alpha-beta  T2 =       0.9465011663D-01 E2=     -0.4082849586D+00
     beta-beta   T2 =       0.1647250746D-01 E2=     -0.6591935551D-01
 ANorm=    0.1061882824D+01
 E2 =    -0.5401236697D+00 EUMP2 =    -0.15266613462230D+03
          IDoAtm=111111
          Differentiating once with respect to electric field.
                with respect to dipole field.
          Differentiating once with respect to nuclear coordinates.
 Keep R1 ints in memory in symmetry-blocked form, NReq=217646876.
          There are     1 degrees of freedom in the 1st order CPHF.  IDoFFX=0 NUNeed=     1.
 LinEq1:  Iter=  0 NonCon=     1 RMS=3.34D-03 Max=4.76D-02 NDo=     1
 AX will form     1 AO Fock derivatives at one time.
 LinEq1:  Iter=  1 NonCon=     1 RMS=4.24D-04 Max=4.54D-03 NDo=     1
 LinEq1:  Iter=  2 NonCon=     1 RMS=1.38D-04 Max=1.63D-03 NDo=     1
 LinEq1:  Iter=  3 NonCon=     1 RMS=4.15D-05 Max=3.34D-04 NDo=     1
 LinEq1:  Iter=  4 NonCon=     1 RMS=5.49D-06 Max=4.09D-05 NDo=     1
 LinEq1:  Iter=  5 NonCon=     1 RMS=1.08D-06 Max=8.40D-06 NDo=     1
 LinEq1:  Iter=  6 NonCon=     1 RMS=2.24D-07 Max=2.15D-06 NDo=     1
 LinEq1:  Iter=  7 NonCon=     1 RMS=9.78D-08 Max=1.10D-06 NDo=     1
 LinEq1:  Iter=  8 NonCon=     1 RMS=1.52D-08 Max=1.05D-07 NDo=     1
 LinEq1:  Iter=  9 NonCon=     1 RMS=2.38D-09 Max=2.08D-08 NDo=     1
 LinEq1:  Iter= 10 NonCon=     1 RMS=4.74D-10 Max=3.34D-09 NDo=     1
 LinEq1:  Iter= 11 NonCon=     0 RMS=6.93D-11 Max=6.72D-10 NDo=     1
 Linear equations converged to 1.000D-10 1.000D-09 after    11 iterations.
 End of Minotr F.D. properties file   721 does not exist.
 End of Minotr F.D. properties file   722 does not exist.
 End of Minotr F.D. properties file   788 does not exist.
 Calling FoFJK, ICntrl=  10002127 FMM=F ISym2X=1 I1Cent= 0 IOpClX= 0 NMat=1 NMatS=1 NMatT=0.
 ***** Axes restored to original set *****
 -------------------------------------------------------------------
 Center     Atomic                   Forces (Hartrees/Bohr)
 Number     Number              X              Y              Z
 -------------------------------------------------------------------
      1        8          -0.000004502   -0.000000000   -0.000741403
      2        1           0.000003384    0.000000000    0.001220236
      3        8          -0.000350512   -0.000000000   -0.000617529
      4        1          -0.000069558    0.000000000    0.000028482
      5        1           0.000210594    0.000125945    0.000055108
      6        1           0.000210594   -0.000125945    0.000055108
 -------------------------------------------------------------------
 Cartesian Forces:  Max     0.001220236 RMS     0.000385504
 -----------------------------------------------------------------------------------------------
                       Internal Coordinate Forces (Hartree/Bohr or radian)
  Cent   Atom   N1       Length/X         N2         Alpha/Y        N3         Beta/Z          J
 -----------------------------------------------------------------------------------------------
      1  O 
         X        1   0.000000(     1)
      2  H        1   0.000003(     2)      2  -0.002343(     7)
      3  O        1   0.000071(     3)      2   0.002343(     8)      3  -0.000000(    12)     0
      4  H        1   0.000045(     4)      3   0.000110(     9)      2   0.000000(    13)     0
      5  H        4  -0.000052(     5)      1   0.000446(    10)      5   0.000035(    14)     0
      6  H        4  -0.000052(     6)      1   0.000446(    11)      5  -0.000035(    15)     0
 -----------------------------------------------------------------------------------------------
 Internal  Forces:  Max     0.002342985 RMS     0.000871907

 GradGradGradGradGradGradGradGradGradGradGradGradGradGradGradGradGradGrad
 Berny optimization.
 Search for a local minimum.
 Step number   5 out of a maximum of  100
 All quantities printed in internal units (Hartrees-Bohrs-Radians)
[...]
 Calling FoFJK, ICntrl=  10100127 FMM=F ISym2X=1 I1Cent= 0 IOpClX= 0 NMat=1 NMatS=1 NMatT=0.
 Full mass-weighted force constant matrix:
 Low frequencies ---  -25.9653   -1.0366   -0.0018   -0.0013    0.0012    0.4986
 Low frequencies ---  137.3754  144.5954  153.7259
 Diagonal vibrational polarizability:
       55.2057582     190.4476198     230.0322632
 Harmonic frequencies (cm**-1), IR intensities (KM/Mole), Raman scattering
 activities (A**4/AMU), depolarization ratios for plane and unpolarized
 incident light, reduced masses (AMU), force constants (mDyne/A),
 and normal coordinates:
                      1                      2                      3
                     A"                     A"                     A'
 Frequencies --    137.0896               143.1259               153.7245
 Red. masses --      1.0645                 1.0439                 1.5700
 Frc consts  --      0.0118                 0.0126                 0.0219
 IR Inten    --    123.7616                34.8709               102.8026
  Atom  AN      X      Y      Z        X      Y      Z        X      Y      Z
     1   8     0.00   0.00  -0.06    -0.00  -0.00   0.01     0.02   0.16   0.00
     2   1    -0.00   0.00   0.12     0.00  -0.00  -0.35    -0.33   0.16  -0.00
     3   8    -0.00  -0.00  -0.00     0.00   0.00  -0.05    -0.05  -0.09  -0.00
     4   1     0.00  -0.00   0.72    -0.00   0.00   0.35     0.11  -0.20  -0.00
     5   1     0.39  -0.27   0.09     0.06   0.55   0.27     0.34  -0.52   0.00
     6   1    -0.39   0.27   0.09    -0.06  -0.55   0.27     0.34  -0.52  -0.00
                      4                      5                      6
                     A'                     A'                     A"
 Frequencies --    182.2117               340.7944               621.8540
 Red. masses --      2.3717                 1.0838                 1.0425
 Frc consts  --      0.0464                 0.0742                 0.2375
 IR Inten    --    135.0042                73.6960                98.1981
  Atom  AN      X      Y      Z        X      Y      Z        X      Y      Z
     1   8     0.01  -0.17   0.00     0.01  -0.03   0.00     0.00  -0.00  -0.03
     2   1    -0.33  -0.17  -0.00     0.59  -0.03  -0.00     0.00  -0.00   0.93
     3   8    -0.05   0.25  -0.00    -0.06   0.02   0.00    -0.00   0.00  -0.04
     4   1     0.10  -0.51  -0.00    -0.16   0.63  -0.00    -0.00   0.00   0.01
     5   1     0.42  -0.27   0.01     0.20  -0.26   0.00    -0.04   0.25   0.07
     6   1     0.42  -0.27  -0.01     0.20  -0.26  -0.00     0.04  -0.25   0.07
                      7                      8                      9
                     A'                     A'                     A'
 Frequencies --   1628.1266              1655.3235              3725.2710
 Red. masses --      1.0844                 1.0776                 1.0529
 Frc consts  --      1.6936                 1.7397                 8.6091
 IR Inten    --     77.6134                51.3442               293.0161
  Atom  AN      X      Y      Z        X      Y      Z        X      Y      Z
     1   8    -0.01   0.01   0.00    -0.05   0.04  -0.00     0.02  -0.05   0.00
     2   1     0.19  -0.01  -0.00     0.72  -0.01  -0.00     0.04   0.94  -0.00
     3   8    -0.05  -0.05   0.00     0.01   0.01  -0.00    -0.00  -0.00  -0.00
     4   1     0.04  -0.17  -0.00     0.16  -0.61   0.00    -0.30  -0.12   0.00
     5   1     0.40   0.36   0.41    -0.10  -0.11  -0.11     0.03   0.03  -0.06
     6   1     0.40   0.36  -0.41    -0.10  -0.11   0.11     0.03   0.03   0.06
                     10                     11                     12
                     A'                     A'                     A"
 Frequencies --   3814.5449              3915.2145              3936.2842
 Red. masses --      1.0448                 1.0742                 1.0817
 Frc consts  --      8.9572                 9.7015                 9.8752
 IR Inten    --      9.7430               113.5408                97.6934
  Atom  AN      X      Y      Z        X      Y      Z        X      Y      Z
     1   8     0.00  -0.00   0.00    -0.06  -0.04   0.00     0.00   0.00  -0.00
     2   1     0.01   0.09   0.00    -0.02   0.31  -0.00     0.00  -0.00  -0.00
     3   8     0.04   0.03   0.00     0.00   0.00  -0.00     0.00   0.00  -0.07
     4   1    -0.06  -0.02  -0.00     0.91   0.25  -0.00    -0.00  -0.00   0.00
     5   1    -0.29  -0.26   0.58    -0.01  -0.01   0.02    -0.32  -0.29   0.56
     6   1    -0.29  -0.26  -0.58    -0.01  -0.01  -0.02     0.32   0.29   0.56

 -------------------
 - Thermochemistry -
 -------------------
 Temperature   298.150 Kelvin.  Pressure   1.00000 Atm.
 Atom     1 has atomic number  8 and mass  15.99491
 Atom     2 has atomic number  1 and mass   1.00783
 Atom     3 has atomic number  8 and mass  15.99491
 Atom     4 has atomic number  1 and mass   1.00783
 Atom     5 has atomic number  1 and mass   1.00783
 Atom     6 has atomic number  1 and mass   1.00783
 Molecular mass:    36.02113 amu.
 Principal axes and moments of inertia in atomic units:
                           1         2         3
     Eigenvalues --     8.21082 282.93315 283.06547
           X            0.04209   0.00000   0.99911
           Y            0.99911   0.00000  -0.04209
           Z            0.00000   1.00000  -0.00000
 This molecule is an asymmetric top.
 Rotational symmetry number  1.
 Rotational temperatures (Kelvin)     10.54875     0.30613     0.30599
 Rotational constants (GHZ):         219.80024     6.37868     6.37570
 Zero-point vibrational energy     121143.2 (Joules/Mol)
                                   28.95392 (Kcal/Mol)
 Warning -- explicit consideration of   5 degrees of freedom as
           vibrations may cause significant error
 Vibrational temperatures:    197.24   205.93   221.18   262.16   490.33
          (Kelvin)            894.71  2342.51  2381.64  5359.83  5488.28
                             5633.12  5663.43
 
 Zero-point correction=                           0.046141 (Hartree/Particle)
 Thermal correction to Energy=                    0.052046
 Thermal correction to Enthalpy=                  0.052991
 Thermal correction to Gibbs Free Energy=         0.019750
 Sum of electronic and zero-point Energies=           -152.620015
 Sum of electronic and thermal Energies=              -152.614110
 Sum of electronic and thermal Enthalpies=            -152.613166
 Sum of electronic and thermal Free Energies=         -152.646406
 
                     E (Thermal)             CV                S
                      KCal/Mol        Cal/Mol-Kelvin    Cal/Mol-Kelvin
 Total                   32.660             16.221             69.960
 Electronic               0.000              0.000              0.000
 Translational            0.889              2.981             36.674
 Rotational               0.889              2.981             21.114
 Vibrational             30.882             10.259             12.172
 Vibration     1          0.614              1.916              2.844
 Vibration     2          0.616              1.910              2.762
 Vibration     3          0.619              1.899              2.626
 Vibration     4          0.630              1.864              2.306
 Vibration     5          0.720              1.594              1.208
                       Q            Log10(Q)             Ln(Q)
 Total Bot       0.823129D-09         -9.084532        -20.917909
 Total V=0       0.137671D+13         12.138843         27.950718
 Vib (Bot)       0.105525D-19        -19.976647        -45.997929
 Vib (Bot)    1  0.148438D+01          0.171546          0.395000
 Vib (Bot)    2  0.141947D+01          0.152125          0.350280
 Vib (Bot)    3  0.131761D+01          0.119786          0.275816
 Vib (Bot)    4  0.110145D+01          0.041963          0.096624
 Vib (Bot)    5  0.544585D+00         -0.263934         -0.607732
 Vib (V=0)       0.176493D+02          1.246728          2.870698
 Vib (V=0)    1  0.206633D+01          0.315200          0.725775
 Vib (V=0)    2  0.200495D+01          0.302104          0.695620
 Vib (V=0)    3  0.190929D+01          0.280871          0.646729
 Vib (V=0)    4  0.170962D+01          0.232900          0.536272
 Vib (V=0)    5  0.123931D+01          0.093178          0.214551
 Electronic      0.100000D+01          0.000000          0.000000
 Translational   0.849747D+07          6.929290         15.955280
 Rotational      0.917961D+04          3.962824          9.124740
 ***** Axes restored to original set *****
 -------------------------------------------------------------------
 Center     Atomic                   Forces (Hartrees/Bohr)
 Number     Number              X              Y              Z
 -------------------------------------------------------------------
      1        8          -0.000001364    0.000000000   -0.000634585
      2        1           0.000000648    0.000000000    0.000948282
      3        8           0.000000808   -0.000000000   -0.000315811
      4        1           0.000000924   -0.000000000    0.000000819
      5        1          -0.000000508    0.000000484    0.000000647
      6        1          -0.000000508   -0.000000484    0.000000647
 -------------------------------------------------------------------
 Cartesian Forces:  Max     0.000948282 RMS     0.000279054
 -----------------------------------------------------------------------------------------------
                       Internal Coordinate Forces (Hartree/Bohr or radian)
  Cent   Atom   N1       Length/X         N2         Alpha/Y        N3         Beta/Z          J
 -----------------------------------------------------------------------------------------------
      1  O 
         X        1   0.000000(     1)
      2  H        1   0.000001(     2)      2  -0.001733(     7)
      3  O        1  -0.000000(     3)      2   0.001733(     8)      3   0.000000(    12)     0
      4  H        1   0.000001(     4)      3  -0.000002(     9)      2  -0.000000(    13)     0
      5  H        4  -0.000001(     5)      1  -0.000000(    10)      5  -0.000001(    14)     0
      6  H        4  -0.000001(     6)      1  -0.000000(    11)      5   0.000001(    15)     0
 -----------------------------------------------------------------------------------------------
 Internal  Forces:  Max     0.001733237 RMS     0.000632885

 GradGradGradGradGradGradGradGradGradGradGradGradGradGradGradGradGradGrad
 Berny optimization.
 Search for a local minimum.
 Step number   1 out of a maximum of    2
 All quantities printed in internal units (Hartrees-Bohrs-Radians)
 Second derivative matrix not updated -- analytic derivatives used.
 The second derivative matrix:
                          Roh       Roo       R1        A1        R2
           Roh          0.50381
           Roo          0.00132   0.00987
           R1          -0.00712  -0.00047   0.54545
           A1           0.02558   0.00229   0.03184   0.14895
           R2          -0.00361   0.00153  -0.00003  -0.00021   1.06317
           A2           0.00461  -0.00065   0.00001  -0.00057  -0.06533
           D1           0.00329  -0.00201  -0.00009  -0.00013  -0.09326
                          A2        D1
           A2           0.22186
           D1           0.27017   0.35436
 ITU=  0
     Eigenvalues ---    0.00913   0.01058   0.14455   0.50454   0.54198
     Eigenvalues ---    0.54865   1.08803
 Angle between quadratic step and forces=  62.75 degrees.
 Linear search not attempted -- first point.
 Variable       Old X    -DE/DX   Delta X   Delta X   Delta X     New X
                                 (Linear)    (Quad)   (Total)
   Roh        1.82984   0.00000   0.00000   0.00000   0.00000   1.82984
   Roo        5.51113  -0.00000   0.00000  -0.00002  -0.00002   5.51111
    R1        1.81494   0.00000   0.00000   0.00000   0.00000   1.81494
    A1        1.81835  -0.00000   0.00000  -0.00001  -0.00001   1.81834
    R2        1.81828  -0.00000   0.00000  -0.00000  -0.00000   1.81828
    A2        1.98647  -0.00000   0.00000   0.00001   0.00001   1.98648
    D1        2.09677  -0.00000   0.00000  -0.00001  -0.00001   2.09676
         Item               Value     Threshold  Converged?
 Maximum Force            0.000002     0.000015     YES
 RMS     Force            0.000001     0.000010     YES
 Maximum Displacement     0.000020     0.000060     YES
 RMS     Displacement     0.000012     0.000040     YES
 Predicted change in Energy=-2.209699D-11
 Optimization completed.
    -- Stationary point found.
                       ----------------------------
                       !   Optimized Parameters   !
                       ! (Angstroms and Degrees)  !
 ----------------------                            ----------------------
 !      Name          Value   Derivative information (Atomic Units)     !
 ------------------------------------------------------------------------
 !       Roh         0.9683   -DE/DX =    0.0                           !
 !       Roo         2.9164   -DE/DX =    0.0                           !
 !       R1          0.9604   -DE/DX =    0.0                           !
 !       A1        104.1838   -DE/DX =    0.0                           !
 !       R2          0.9622   -DE/DX =    0.0                           !
 !       A2        113.8161   -DE/DX =    0.0                           !
 !       D1        120.1361   -DE/DX =    0.0                           !
 ------------------------------------------------------------------------
 GradGradGradGradGradGradGradGradGradGradGradGradGradGradGradGradGradGrad


 ----------------------------------------------------------------------

 Electric dipole moment (input orientation):
 (Debye = 10**-18 statcoulomb cm , SI units = C m)
                  (au)            (Debye)         (10**-30 SI)
   Tot        0.117681D+01      0.299116D+01      0.997745D+01
   x          0.117680D+01      0.299114D+01      0.997737D+01
   y          0.000000D+00      0.000000D+00      0.000000D+00
   z          0.474772D-02      0.120675D-01      0.402528D-01

 Dipole polarizability, Alpha (input orientation).
 (esu units = cm**3 , SI units = C**2 m**2 J**-1)
 Alpha(0;0):
               (au)            (10**-24 esu)      (10**-40 SI)
   iso        0.194646D+02      0.288436D+01      0.320928D+01
   aniso      0.330895D+01      0.490336D+00      0.545572D+00
   xx         0.214397D+02      0.317704D+01      0.353493D+01
   yx         0.000000D+00      0.000000D+00      0.000000D+00
   yy         0.185893D+02      0.275465D+01      0.306496D+01
   zx        -0.843416D+00     -0.124981D+00     -0.139061D+00
   zy         0.000000D+00      0.000000D+00      0.000000D+00
   zz         0.183648D+02      0.272139D+01      0.302795D+01

 ----------------------------------------------------------------------

 Dipole orientation:
     8         -0.00000000          0.00000000          0.00000000
     1          0.00738228         -0.00000000          1.82982666
     8          0.02223400         -0.00000000          5.51108469
     1         -1.76138646         -0.00000000         -0.43761849
     1          0.86033269         -1.43860784          6.24193654
     1          0.86033269          1.43860784          6.24193654

 Electric dipole moment (dipole orientation):
 (Debye = 10**-18 statcoulomb cm , SI units = C m)
                  (au)            (Debye)         (10**-30 SI)
   Tot        0.117681D+01      0.299116D+01      0.997745D+01
   x          0.000000D+00      0.000000D+00      0.000000D+00
   y          0.000000D+00      0.000000D+00      0.000000D+00
   z          0.117681D+01      0.299116D+01      0.997745D+01

 Dipole polarizability, Alpha (dipole orientation).
 (esu units = cm**3 , SI units = C**2 m**2 J**-1)
 Alpha(0;0):
               (au)            (10**-24 esu)      (10**-40 SI)
   iso        0.194646D+02      0.288436D+01      0.320928D+01
   aniso      0.330895D+01      0.490336D+00      0.545572D+00
   xx         0.183717D+02      0.272240D+01      0.302908D+01
   yx         0.000000D+00      0.000000D+00      0.000000D+00
   yy         0.185893D+02      0.275465D+01      0.306496D+01
   zx         0.855794D+00      0.126816D+00      0.141101D+00
   zy         0.000000D+00      0.000000D+00      0.000000D+00
   zz         0.214328D+02      0.317602D+01      0.353380D+01

 ----------------------------------------------------------------------
 1\1\GINC-N2110\Freq\RMP2-FC\Aug-CC-pVTZ\H4O2\GDS001\31-Mar-2023\1\\#N 
 Geom=AllCheck Guess=TCheck SCRF=Check GenChk RMP2(FC)/Aug-CC-pVTZ Freq
 \\Optimization Linear\\0,1\O\X,1,1.\H,1,Roh,2,90.\O,1,Roo,2,90.,3,0.,0
 \H,1,R1,3,A1,2,0.,0\H,4,R2,1,A2,5,D1,0\H,4,R2,1,A2,5,-D1,0\\Roh=0.9683
 1045\Roo=2.91636416\R1=0.9604227\A1=104.18384421\R2=0.96219295\A2=113.
 8161294\D1=120.13610314\\Version=ES64L-G16RevA.03\State=1-A'\HF=-152.1
 261144\MP2=-152.6661565\RMSD=9.515e-10\RMSF=2.791e-04\ZeroPoint=0.0461
 41\Thermal=0.0520464\Dipole=1.1768046,0.,0.0047477\DipoleDeriv=-0.7098
 391,0.,0.1050511,0.,-0.6524455,0.,0.0841249,0.,-0.4067654,0.5862032,0.
 ,-0.0951617,0.,0.2633675,0.,-0.0706448,0.,0.2141143,-0.7028893,0.,-0.0
 955117,0.,-0.4910115,0.,-0.1266918,0.,-0.4533501,0.2860178,0.,-0.03073
 9,0.,0.3151695,0.,-0.025047,0.,0.1348705,0.2702537,0.0044999,0.0581806
 ,0.0201162,0.28246,-0.0369658,0.0691294,-0.0271226,0.2555653,0.2702537
 ,-0.0044999,0.0581806,-0.0201162,0.28246,0.0369658,0.0691294,0.0271226
 ,0.2555653\Polar=21.4397052,0.,18.589283,-0.8434161,0.,18.3648256\PG=C
 S [SG(H2O2),X(H2)]\NImag=0\\0.57385555,0.,0.00370234,-0.11153264,0.,0.
 54584541,-0.49321204,0.,0.02554697,0.50380956,0.,-0.00631714,0.,0.,0.0
 1245418,-0.03480904,0.,-0.04738871,-0.01575644,0.,0.05745317,-0.008731
 39,0.,0.00285812,0.00046224,0.,-0.00357518,0.21225966,0.,0.00413326,0.
 ,0.,-0.00737181,0.,0.,0.68950038,0.00160417,0.,0.00286588,0.00010780,0
 .,-0.00419051,-0.22242039,0.,0.25495941,-0.07055815,0.,0.08473564,-0.0
 1192140,0.,0.05046152,-0.00130847,0.,-0.00085415,0.08358696,0.,-0.0003
 3883,0.,0.,-0.00013690,0.,0.,-0.00025557,0.,0.,0.00044581,0.14540063,0
 .,-0.50108591,-0.01035982,0.,-0.00603406,-0.00080821,0.,-0.00000793,-0
 .13427405,0.,0.50708149,-0.00067699,-0.00139082,-0.00080405,0.00043082
 ,0.00320091,0.00183956,-0.10134102,0.17301542,0.11078128,0.00010053,0.
 00002549,0.00002073,0.09684733,-0.00139047,-0.00058981,0.00016468,0.00
 236668,0.00068583,-0.00031276,0.13284323,-0.34300313,-0.15170461,-0.00
 000614,0.00014274,-0.00000064,-0.15433215,0.37180957,-0.00033156,0.000
 08538,-0.00011833,0.00023074,0.00015228,0.00008005,0.11197282,-0.19885
 477,-0.12681342,-0.00003448,-0.00019007,0.00002320,-0.10668676,0.17533
 026,0.12123662,-0.00067699,0.00139082,-0.00080405,0.00043082,-0.003200
 91,0.00183956,-0.10134102,-0.17301542,0.11078128,0.00010053,-0.0000254
 9,0.00002073,0.00463933,0.02051885,-0.00515076,0.09684733,0.00139047,-
 0.00058981,-0.00016468,-0.00236668,0.00068583,0.00031276,-0.13284323,-
 0.34300313,0.15170461,0.00000614,0.00014274,0.00000064,-0.02051885,-0.
 02904521,0.02347692,0.15433215,0.37180957,-0.00033156,-0.00008538,-0.0
 0011833,0.00023074,-0.00015228,0.00008005,0.11197282,0.19885477,-0.126
 81342,-0.00003448,0.00019007,0.00002320,-0.00515076,-0.02347692,0.0055
 9189,-0.10668676,-0.17533026,0.12123662\\0.00000136,0.,0.00063459,-0.0
 0000065,0.,-0.00094828,-0.00000081,0.,0.00031581,-0.00000092,0.,-0.000
 00082,0.00000051,-0.00000048,-0.00000065,0.00000051,0.00000048,-0.0000
 0065\\\@


 FROM AN ANONYMOUS WRITER, ON PERSPECTIVE:

 MAN, DESPITE HIS ARTISTIC PRETENSIONS, HIS SOPHISTICATION AND MANY 
 ACCOMPLISHMENTS, OWES THE FACT OF HIS EXISTENCE TO A SIX-INCH LAYER OF 
 TOPSOIL AND THE FACT THAT IT RAINS.
 Job cpu time:       0 days  1 hours  5 minutes 19.9 seconds.
 Elapsed time:       0 days  0 hours  2 minutes 21.5 seconds.
 File lengths (MBytes):  RWF=   3332 Int=      0 D2E=      0 Chk=      8 Scr=      8
 Normal termination of Gaussian 16 at Fri Mar 31 12:24:50 2023.
