 Entering Gaussian System, Link 0=g16
 Input=nh3_mp2_avtz_opt_freq.gjf
 Output=nh3_mp2_avtz_opt_freq.log
 Initial command:
 /sw/contrib/gaussian/g16/A03/g16/l1.exe "/gscratch/scrubbed/gds001/Gau-166640.inp" -scrdir="/gscratch/scrubbed/gds001/"
 Entering Link 1 = /sw/contrib/gaussian/g16/A03/g16/l1.exe PID=    166641.
  
 Copyright (c) 1988,1990,1992,1993,1995,1998,2003,2009,2016,
            Gaussian, Inc.  All Rights Reserved.
  
 This is part of the Gaussian(R) 16 program.  It is based on
 the Gaussian(R) 09 system (copyright 2009, Gaussian, Inc.),
 the Gaussian(R) 03 system (copyright 2003, Gaussian, Inc.),
 the Gaussian(R) 98 system (copyright 1998, Gaussian, Inc.),
 the Gaussian(R) 94 system (copyright 1995, Gaussian, Inc.),
 the Gaussian 92(TM) system (copyright 1992, Gaussian, Inc.),
 the Gaussian 90(TM) system (copyright 1990, Gaussian, Inc.),
 the Gaussian 88(TM) system (copyright 1988, Gaussian, Inc.),
 the Gaussian 86(TM) system (copyright 1986, Carnegie Mellon
 University), and the Gaussian 82(TM) system (copyright 1983,
 Carnegie Mellon University). Gaussian is a federally registered
 trademark of Gaussian, Inc.
  
 This software contains proprietary and confidential information,
 including trade secrets, belonging to Gaussian, Inc.
  
 This software is provided under written license and may be
 used, copied, transmitted, or stored only in accord with that
 written license.
  
 The following legend is applicable only to US Government
 contracts under FAR:
  
                    RESTRICTED RIGHTS LEGEND
  
 Use, reproduction and disclosure by the US Government is
 subject to restrictions as set forth in subparagraphs (a)
 and (c) of the Commercial Computer Software - Restricted
 Rights clause in FAR 52.227-19.
  
 Gaussian, Inc.
 340 Quinnipiac St., Bldg. 40, Wallingford CT 06492
  
  
 ---------------------------------------------------------------
 Warning -- This program may not be used in any manner that
 competes with the business of Gaussian, Inc. or will provide
 assistance to any competitor of Gaussian, Inc.  The licensee
 of this program is prohibited from giving any competitor of
 Gaussian, Inc. access to this program.  By using this program,
 the user acknowledges that Gaussian, Inc. is engaged in the
 business of creating and licensing software in the field of
 computational chemistry and represents and warrants to the
 licensee that it is not a competitor of Gaussian, Inc. and that
 it will not use this program in any manner prohibited above.
 ---------------------------------------------------------------
  

 Cite this work as:
 Gaussian 16, Revision A.03,
 M. J. Frisch, G. W. Trucks, H. B. Schlegel, G. E. Scuseria, 
 M. A. Robb, J. R. Cheeseman, G. Scalmani, V. Barone, 
 G. A. Petersson, H. Nakatsuji, X. Li, M. Caricato, A. V. Marenich, 
 J. Bloino, B. G. Janesko, R. Gomperts, B. Mennucci, H. P. Hratchian, 
 J. V. Ortiz, A. F. Izmaylov, J. L. Sonnenberg, D. Williams-Young, 
 F. Ding, F. Lipparini, F. Egidi, J. Goings, B. Peng, A. Petrone, 
 T. Henderson, D. Ranasinghe, V. G. Zakrzewski, J. Gao, N. Rega, 
 G. Zheng, W. Liang, M. Hada, M. Ehara, K. Toyota, R. Fukuda, 
 J. Hasegawa, M. Ishida, T. Nakajima, Y. Honda, O. Kitao, H. Nakai, 
 T. Vreven, K. Throssell, J. A. Montgomery, Jr., J. E. Peralta, 
 F. Ogliaro, M. J. Bearpark, J. J. Heyd, E. N. Brothers, K. N. Kudin, 
 V. N. Staroverov, T. A. Keith, R. Kobayashi, J. Normand, 
 K. Raghavachari, A. P. Rendell, J. C. Burant, S. S. Iyengar, 
 J. Tomasi, M. Cossi, J. M. Millam, M. Klene, C. Adamo, R. Cammi, 
 J. W. Ochterski, R. L. Martin, K. Morokuma, O. Farkas, 
 J. B. Foresman, and D. J. Fox, Gaussian, Inc., Wallingford CT, 2016.
 
 ******************************************
 Gaussian 16:  ES64L-G16RevA.03 25-Dec-2016
                30-Mar-2023 
 ******************************************
 %nprocshared=32
 Will use up to   32 processors via shared memory.
 %mem=41GB
 -------------------------------------
 # mp2/aug-cc-pVTZ opt=(z-matrix) freq
 -------------------------------------
 1/10=7,18=40,38=1/1,3;
 2/12=2,17=6,18=5,29=3,40=1/2;
 3/5=16,6=1,7=10,11=9,25=1,30=1,71=1/1,2,3;
 4//1;
 5/5=2,38=5/2;
 8/6=4,10=1/1;
 9/15=2,16=-3/6;
 10/5=1/2;
 6/7=2,8=2,9=2,10=2/1;
 7/12=2,29=1/1,2,3,16;
 1/10=7,18=40/3(2);
 2/29=3/2;
 99//99;
 2/29=3/2;
 3/5=16,6=1,7=10,11=9,25=1,30=1,71=1/1,2,3;
 4/5=5,16=3,69=1/1;
 5/5=2,38=5/2;
 8/6=4,10=1/1;
 9/15=2,16=-3/6;
 10/5=1/2;
 7/12=2/1,2,3,16;
 1/18=40/3(-8);
 2/29=3/2;
 6/7=2,8=2,9=2,10=2/1;
 99//99;
 --------------
 Opt To Minimum
 --------------
 Symbolic Z-matrix:
 Charge =  0 Multiplicity = 1
 N
 X                    1     1. 
 H                    1    R1       2    A1
 H                    1    R1       2    A1       3    -120.     0
 H                    1    R1       2    A1       3     120.     0
       Variables:
  R1                    1.                       
  A1                  107.                       
 

 GradGradGradGradGradGradGradGradGradGradGradGradGradGradGradGradGradGrad
 Berny optimization.
 Initialization pass.
                       ----------------------------
                       !    Initial Parameters    !
                       ! (Angstroms and Degrees)  !
 ----------------------                            ----------------------
 !      Name          Value   Derivative information (Atomic Units)     !
 ------------------------------------------------------------------------
 !       R1          1.0      estimate D2E/DX2                          !
 !       A1        107.0      estimate D2E/DX2                          !
 ------------------------------------------------------------------------
 Trust Radius=3.00D-01 FncErr=1.00D-07 GrdErr=1.00D-07 EigMax=2.50D+02 EigMin=1.00D-04
 Number of steps in this run=     20 maximum allowed number of steps=    100.
 GradGradGradGradGradGradGradGradGradGradGradGradGradGradGradGradGradGrad

 ---------------------------------------------------------------------------------------------------
                            Z-MATRIX (ANGSTROMS AND DEGREES)
   CD    Cent   Atom    N1       Length/X        N2       Alpha/Y        N3        Beta/Z          J
 ---------------------------------------------------------------------------------------------------
      1      1  N 
      2         X        1   1.000000(     1)
      3      2  H        1   1.000000(     2)      2  107.000(     5)
      4      3  H        1   1.000000(     3)      2  107.000(     6)      3 -120.000(     8)      0
      5      4  H        1   1.000000(     4)      2  107.000(     7)      3  120.000(     9)      0
 ---------------------------------------------------------------------------------------------------
                         Z-Matrix orientation:                         
 ---------------------------------------------------------------------
 Center     Atomic      Atomic             Coordinates (Angstroms)
 Number     Number       Type             X           Y           Z
 ---------------------------------------------------------------------
      1          7           0        0.000000    0.000000    0.000000
      2         -1           0        0.000000    0.000000    1.000000
      3          1           0        0.956305    0.000000   -0.292372
      4          1           0       -0.478152    0.828184   -0.292372
      5          1           0       -0.478152   -0.828184   -0.292372
 ---------------------------------------------------------------------
                    Distance matrix (angstroms):
                    1          2          3          4          5
     1  N    0.000000
     2  X    1.000000   0.000000
     3  H    1.000000   1.607714   0.000000
     4  H    1.000000   1.607714   1.656368   0.000000
     5  H    1.000000   1.607714   1.656368   1.656368   0.000000
 Stoichiometry    H3N
 Framework group  C3V[C3(N),3SGV(H)]
 Deg. of freedom     2
 Full point group                 C3V     NOp   6
 Largest Abelian subgroup         CS      NOp   2
 Largest concise Abelian subgroup CS      NOp   2
                         Standard orientation:                         
 ---------------------------------------------------------------------
 Center     Atomic      Atomic             Coordinates (Angstroms)
 Number     Number       Type             X           Y           Z
 ---------------------------------------------------------------------
      1          7           0        0.000000    0.000000    0.087712
      2          1           0        0.000000    0.956305   -0.204660
      3          1           0       -0.828184   -0.478152   -0.204660
      4          1           0        0.828184   -0.478152   -0.204660
 ---------------------------------------------------------------------
 Rotational constants (GHZ):         316.8384127         316.8384127         182.7755799
 Standard basis: Aug-CC-pVTZ (5D, 7F)
 There are    80 symmetry adapted cartesian basis functions of A'  symmetry.
 There are    50 symmetry adapted cartesian basis functions of A"  symmetry.
 There are    69 symmetry adapted basis functions of A'  symmetry.
 There are    46 symmetry adapted basis functions of A"  symmetry.
   115 basis functions,   153 primitive gaussians,   130 cartesian basis functions
     5 alpha electrons        5 beta electrons
       nuclear repulsion energy        12.0711625641 Hartrees.
 NAtoms=    4 NActive=    4 NUniq=    2 SFac= 4.00D+00 NAtFMM=   60 NAOKFM=F Big=F
 Integral buffers will be    131072 words long.
 Raffenetti 1 integral format.
 Two-electron integral symmetry is turned on.
 One-electron integrals computed using PRISM.
 NBasis=   115 RedAO= T EigKep=  2.68D-04  NBF=    69    46
 NBsUse=   115 1.00D-06 EigRej= -1.00D+00 NBFU=    69    46
 ExpMin= 2.53D-02 ExpMax= 1.14D+04 ExpMxC= 3.89D+02 IAcc=3 IRadAn=         5 AccDes= 0.00D+00
 Harris functional with IExCor=  205 and IRadAn=       5 diagonalized for initial guess.
 HarFok:  IExCor=  205 AccDes= 0.00D+00 IRadAn=         5 IDoV= 1 UseB2=F ITyADJ=14
 ICtDFT=  3500011 ScaDFX=  1.000000  1.000000  1.000000  1.000000
 FoFCou: FMM=F IPFlag=           0 FMFlag=      100000 FMFlg1=           0
         NFxFlg=           0 DoJE=T BraDBF=F KetDBF=T FulRan=T
         wScrn=  0.000000 ICntrl=       500 IOpCl=  0 I1Cent=   200000004 NGrid=           0
         NMat0=    1 NMatS0=      1 NMatT0=    0 NMatD0=    1 NMtDS0=    0 NMtDT0=    0
 Petite list used in FoFCou.
 Initial guess orbital symmetries:
       Occupied  (A1) (A1) (E) (E) (A1)
       Virtual   (A1) (E) (E) (A1) (A1) (E) (E) (E) (E) (E) (E)
                 (A1) (A1) (A2) (E) (E) (E) (E) (A1) (E) (E) (A1)
                 (E) (E) (A1) (E) (E) (A1) (A1) (E) (E) (A2) (E)
                 (E) (A1) (E) (E) (A2) (E) (E) (E) (E) (A1) (E)
                 (E) (A1) (E) (E) (A1) (E) (E) (A2) (A1) (E) (E)
                 (A1) (E) (E) (E) (E) (A1) (E) (E) (E) (E) (A1)
                 (A2) (A1) (E) (E) (A1) (E) (E) (A2) (E) (E) (E)
                 (E) (A2) (E) (E) (A1) (A1) (E) (E) (A1) (E) (E)
                 (A1) (E) (E) (A2) (E) (E) (A1) (E) (E) (A1) (E)
                 (E) (A1) (E) (E) (A2) (A1) (E) (E) (E) (E) (A1)
 The electronic state of the initial guess is 1-A1.
 Keep R1 ints in memory in symmetry-blocked form, NReq=37892007.
 Requested convergence on RMS density matrix=1.00D-08 within 128 cycles.
 Requested convergence on MAX density matrix=1.00D-06.
 Requested convergence on             energy=1.00D-06.
 No special actions if energy rises.
 SCF Done:  E(RHF) =  -56.2199489010     A.U. after   10 cycles
            NFock= 10  Conv=0.21D-08     -V/T= 2.0010
 ExpMin= 2.53D-02 ExpMax= 1.14D+04 ExpMxC= 3.89D+02 IAcc=3 IRadAn=         5 AccDes= 0.00D+00
 HarFok:  IExCor=  205 AccDes= 0.00D+00 IRadAn=         5 IDoV=-2 UseB2=F ITyADJ=14
 ICtDFT= 12500011 ScaDFX=  1.000000  1.000000  1.000000  1.000000
 Range of M.O.s used for correlation:     2   115
 NBasis=   115 NAE=     5 NBE=     5 NFC=     1 NFV=     0
 NROrb=    114 NOA=     4 NOB=     4 NVA=   110 NVB=   110

 **** Warning!!: The largest alpha MO coefficient is  0.19624603D+02

 Fully direct method using O(ONN) memory.
 JobTyp=1 Pass  1:  I=   2 to   5 NPSUse= 32 ParTrn=T ParDer=T DoDerP=T.
 Spin components of T(2) and E(2):
     alpha-alpha T2 =       0.7802515053D-02 E2=     -0.2650622404D-01
     alpha-beta  T2 =       0.5023745098D-01 E2=     -0.1862684167D+00
     beta-beta   T2 =       0.7802515053D-02 E2=     -0.2650622404D-01
 ANorm=    0.1032396475D+01
 E2 =    -0.2392808648D+00 EUMP2 =    -0.56459229765766D+02
          IDoAtm=1111
          Differentiating once with respect to electric field.
                with respect to dipole field.
          Differentiating once with respect to nuclear coordinates.
 Keep R1 ints in memory in symmetry-blocked form, NReq=37892879.
          There are     1 degrees of freedom in the 1st order CPHF.  IDoFFX=0 NUNeed=     1.
 LinEq1:  Iter=  0 NonCon=     1 RMS=3.26D-03 Max=3.63D-02 NDo=     1
 AX will form     1 AO Fock derivatives at one time.
 LinEq1:  Iter=  1 NonCon=     1 RMS=1.06D-03 Max=1.04D-02 NDo=     1
 LinEq1:  Iter=  2 NonCon=     1 RMS=3.87D-04 Max=2.93D-03 NDo=     1
 LinEq1:  Iter=  3 NonCon=     1 RMS=4.23D-05 Max=2.53D-04 NDo=     1
 LinEq1:  Iter=  4 NonCon=     1 RMS=7.29D-06 Max=6.74D-05 NDo=     1
 LinEq1:  Iter=  5 NonCon=     1 RMS=1.38D-06 Max=1.15D-05 NDo=     1
 LinEq1:  Iter=  6 NonCon=     1 RMS=2.27D-07 Max=2.18D-06 NDo=     1
 LinEq1:  Iter=  7 NonCon=     1 RMS=2.75D-08 Max=2.19D-07 NDo=     1
 LinEq1:  Iter=  8 NonCon=     1 RMS=2.99D-09 Max=2.45D-08 NDo=     1
 LinEq1:  Iter=  9 NonCon=     1 RMS=2.73D-10 Max=2.05D-09 NDo=     1
 LinEq1:  Iter= 10 NonCon=     0 RMS=2.64D-11 Max=1.84D-10 NDo=     1
 Linear equations converged to 1.000D-10 1.000D-09 after    10 iterations.
 End of Minotr F.D. properties file   721 does not exist.
 End of Minotr F.D. properties file   722 does not exist.
 End of Minotr F.D. properties file   788 does not exist.

 **********************************************************************

            Population analysis using the SCF density.

 **********************************************************************

 Orbital symmetries:
       Occupied  (A1) (A1) (E) (E) (A1)
       Virtual   (A1) (E) (E) (A1) (A1) (E) (E) (E) (E) (E) (E)
                 (A1) (A2) (A1) (E) (E) (A1) (E) (E) (E) (E) (A1)
                 (E) (E) (A1) (E) (E) (A1) (A2) (A1) (E) (E) (E)
                 (E) (E) (E) (A1) (A2) (E) (E) (E) (E) (A1) (E)
                 (E) (A1) (E) (E) (A1) (A2) (E) (E) (A1) (E) (E)
                 (A1) (E) (E) (E) (E) (A1) (E) (E) (A2) (E) (E)
                 (A1) (A1) (E) (E) (E) (E) (A1) (A2) (E) (E) (E)
                 (E) (A2) (A1) (E) (E) (A1) (E) (E) (A1) (E) (E)
                 (E) (E) (A2) (A1) (E) (E) (A1) (E) (E) (A1) (E)
                 (E) (A1) (E) (E) (A2) (A1) (E) (E) (E) (E) (A1)
 The electronic state is 1-A1.
 Alpha  occ. eigenvalues --  -15.53409  -1.13995  -0.64128  -0.64128  -0.41490
 Alpha virt. eigenvalues --    0.03023   0.04846   0.04846   0.11876   0.15243
 Alpha virt. eigenvalues --    0.16170   0.16170   0.22086   0.22086   0.24028
 Alpha virt. eigenvalues --    0.24028   0.25590   0.35452   0.36130   0.37052
 Alpha virt. eigenvalues --    0.37052   0.42890   0.45958   0.45958   0.49117
 Alpha virt. eigenvalues --    0.49117   0.55140   0.60652   0.60652   0.74614
 Alpha virt. eigenvalues --    0.80021   0.80021   0.81677   0.89479   0.90826
 Alpha virt. eigenvalues --    0.91052   0.91052   1.00159   1.00159   1.03114
 Alpha virt. eigenvalues --    1.03114   1.03418   1.08199   1.10924   1.10924
 Alpha virt. eigenvalues --    1.13860   1.13860   1.18421   1.21715   1.21715
 Alpha virt. eigenvalues --    1.29457   1.38596   1.38596   1.62006   1.73344
 Alpha virt. eigenvalues --    1.73799   1.73799   1.85995   1.88789   1.88789
 Alpha virt. eigenvalues --    2.00690   2.04260   2.04260   2.07192   2.07192
 Alpha virt. eigenvalues --    2.22568   2.37985   2.37985   2.42058   2.43095
 Alpha virt. eigenvalues --    2.43095   2.51039   3.50286   3.60541   3.60541
 Alpha virt. eigenvalues --    3.96618   3.96618   4.00393   4.14959   4.18990
 Alpha virt. eigenvalues --    4.18990   4.25234   4.25234   4.25859   4.38094
 Alpha virt. eigenvalues --    4.38706   4.38706   4.44155   4.56954   4.56954
 Alpha virt. eigenvalues --    4.67313   4.83400   4.83400   4.91692   4.91692
 Alpha virt. eigenvalues --    4.95326   4.98952   5.11452   5.11452   5.18419
 Alpha virt. eigenvalues --    5.52104   5.52104   5.88902   5.93613   5.93613
 Alpha virt. eigenvalues --    6.22461   6.26571   6.26571   6.69414   6.81114
 Alpha virt. eigenvalues --    6.88843   6.88843   7.69368   7.69368  17.78386
          Condensed to atoms (all electrons):
               1          2          3          4
     1  N    6.516385   0.361056   0.361056   0.361056
     2  H    0.361056   0.455156  -0.008031  -0.008031
     3  H    0.361056  -0.008031   0.455156  -0.008031
     4  H    0.361056  -0.008031  -0.008031   0.455156
 Mulliken charges:
               1
     1  N   -0.599553
     2  H    0.199851
     3  H    0.199851
     4  H    0.199851
 Sum of Mulliken charges =  -0.00000
 Mulliken charges with hydrogens summed into heavy atoms:
               1
     1  N   -0.000000
 Electronic spatial extent (au):  <R**2>=             26.4514
 Charge=              0.0000 electrons
 Dipole moment (field-independent basis, Debye):
    X=              0.0000    Y=             -0.0000    Z=             -1.3134  Tot=              1.3134
 Quadrupole moment (field-independent basis, Debye-Ang):
   XX=             -6.0238   YY=             -6.0238   ZZ=             -9.4904
   XY=             -0.0000   XZ=              0.0000   YZ=              0.0000
 Traceless Quadrupole moment (field-independent basis, Debye-Ang):
   XX=              1.1555   YY=              1.1555   ZZ=             -2.3111
   XY=             -0.0000   XZ=              0.0000   YZ=              0.0000
 Octapole moment (field-independent basis, Debye-Ang**2):
  XXX=             -0.0000  YYY=              1.0737  ZZZ=             -1.1345  XYY=              0.0000
  XXY=             -1.0737  XXZ=             -0.7456  XZZ=              0.0000  YZZ=              0.0000
  YYZ=             -0.7456  XYZ=              0.0000
 Hexadecapole moment (field-independent basis, Debye-Ang**3):
 XXXX=             -9.7185 YYYY=             -9.7185 ZZZZ=            -12.1246 XXXY=              0.0000
 XXXZ=             -0.0000 YYYX=             -0.0000 YYYZ=             -0.2930 ZZZX=             -0.0000
 ZZZY=              0.0000 XXYY=             -3.2395 XXZZ=             -3.9273 YYZZ=             -3.9273
 XXYZ=              0.2930 YYXZ=             -0.0000 ZZXY=              0.0000
 N-N= 1.207116256412D+01 E-N=-1.560013955764D+02  KE= 5.616217453069D+01
 Symmetry A'   KE= 5.352837371589D+01
 Symmetry A"   KE= 2.633800814803D+00
 Calling FoFJK, ICntrl=  10002127 FMM=F ISym2X=1 I1Cent= 0 IOpClX= 0 NMat=1 NMatS=1 NMatT=0.
 ***** Axes restored to original set *****
 -------------------------------------------------------------------
 Center     Atomic                   Forces (Hartrees/Bohr)
 Number     Number              X              Y              Z
 -------------------------------------------------------------------
      1        7           0.000000000    0.000000000    0.016307451
      2        1           0.004007232   -0.000000000   -0.005435817
      3        1          -0.002003616    0.003470365   -0.005435817
      4        1          -0.002003616   -0.003470365   -0.005435817
 -------------------------------------------------------------------
 Cartesian Forces:  Max     0.016307451 RMS     0.005793322
 -----------------------------------------------------------------------------------------------
                       Internal Coordinate Forces (Hartree/Bohr or radian)
  Cent   Atom   N1       Length/X         N2         Alpha/Y        N3         Beta/Z          J
 -----------------------------------------------------------------------------------------------
      1  N 
         X        1   0.000000(     1)
      2  H        1   0.005421(     2)      2   0.007609(     5)
      3  H        1   0.005421(     3)      2   0.007609(     6)      3   0.000000(     8)     0
      4  H        1   0.005421(     4)      2   0.007609(     7)      3  -0.000000(     9)     0
 -----------------------------------------------------------------------------------------------
 Internal  Forces:  Max     0.007609353 RMS     0.005394256

 GradGradGradGradGradGradGradGradGradGradGradGradGradGradGradGradGradGrad
 Berny optimization.
 Search for a local minimum.
 Step number   1 out of a maximum of   20
 All quantities printed in internal units (Hartrees-Bohrs-Radians)
 Second derivative matrix not updated -- first step.
 The second derivative matrix:
                          R1        A1
           R1           1.43065
           A1           0.00000   0.42091
 ITU=  0
     Eigenvalues ---    0.42091   1.43065
 RFO step:  Lambda=-1.41864158D-03 EMin= 4.20908453D-01
 Linear search not attempted -- first point.
 Variable       Old X    -DE/DX   Delta X   Delta X   Delta X     New X
                                 (Linear)    (Quad)   (Total)
    R1        1.88973   0.01626   0.00000   0.01136   0.01136   1.90108
    A1        1.86750   0.02283   0.00000   0.05405   0.05405   1.92156
         Item               Value     Threshold  Converged?
 Maximum Force            0.022828     0.000450     NO 
 RMS     Force            0.019820     0.000300     NO 
 Maximum Displacement     0.054053     0.001800     NO 
 RMS     Displacement     0.039056     0.001200     NO 
 Predicted change in Energy=-7.114847D-04
 GradGradGradGradGradGradGradGradGradGradGradGradGradGradGradGradGradGrad

 ---------------------------------------------------------------------------------------------------
                            Z-MATRIX (ANGSTROMS AND DEGREES)
   CD    Cent   Atom    N1       Length/X        N2       Alpha/Y        N3        Beta/Z          J
 ---------------------------------------------------------------------------------------------------
      1      1  N 
      2         X        1   1.000000(     1)
      3      2  H        1   1.006010(     2)      2  110.097(     5)
      4      3  H        1   1.006010(     3)      2  110.097(     6)      3 -120.000(     8)      0
      5      4  H        1   1.006010(     4)      2  110.097(     7)      3  120.000(     9)      0
 ---------------------------------------------------------------------------------------------------
                         Z-Matrix orientation:                         
 ---------------------------------------------------------------------
 Center     Atomic      Atomic             Coordinates (Angstroms)
 Number     Number       Type             X           Y           Z
 ---------------------------------------------------------------------
      1          7           0        0.000000    0.000000    0.000000
      2         -1           0        0.000000    0.000000    1.000000
      3          1           0        0.944756    0.000000   -0.345676
      4          1           0       -0.472378    0.818183   -0.345676
      5          1           0       -0.472378   -0.818183   -0.345676
 ---------------------------------------------------------------------
                    Distance matrix (angstroms):
                    1          2          3          4          5
     1  N    0.000000
     2  X    1.000000   0.000000
     3  H    1.006010   1.644204   0.000000
     4  H    1.006010   1.644204   1.636366   0.000000
     5  H    1.006010   1.644204   1.636366   1.636366   0.000000
 Stoichiometry    H3N
 Framework group  C3V[C3(N),3SGV(H)]
 Deg. of freedom     2
 Full point group                 C3V     NOp   6
 Largest Abelian subgroup         CS      NOp   2
 Largest concise Abelian subgroup CS      NOp   2
                         Standard orientation:                         
 ---------------------------------------------------------------------
 Center     Atomic      Atomic             Coordinates (Angstroms)
 Number     Number       Type             X           Y           Z
 ---------------------------------------------------------------------
      1          7           0        0.000000    0.000000    0.103703
      2          1           0        0.000000    0.944756   -0.241973
      3          1           0       -0.818183   -0.472378   -0.241973
      4          1           0        0.818183   -0.472378   -0.241973
 ---------------------------------------------------------------------
 Rotational constants (GHZ):         306.9508636         306.9508636         187.2713312
 Standard basis: Aug-CC-pVTZ (5D, 7F)
 There are    80 symmetry adapted cartesian basis functions of A'  symmetry.
 There are    50 symmetry adapted cartesian basis functions of A"  symmetry.
 There are    69 symmetry adapted basis functions of A'  symmetry.
 There are    46 symmetry adapted basis functions of A"  symmetry.
   115 basis functions,   153 primitive gaussians,   130 cartesian basis functions
     5 alpha electrons        5 beta electrons
       nuclear repulsion energy        12.0164904385 Hartrees.
 NAtoms=    4 NActive=    4 NUniq=    2 SFac= 4.00D+00 NAtFMM=   60 NAOKFM=F Big=F
 Integral buffers will be    131072 words long.
 Raffenetti 1 integral format.
 Two-electron integral symmetry is turned on.
 One-electron integrals computed using PRISM.
 NBasis=   115 RedAO= T EigKep=  2.69D-04  NBF=    69    46
 NBsUse=   115 1.00D-06 EigRej= -1.00D+00 NBFU=    69    46
 Initial guess from the checkpoint file:  "/gscratch/scrubbed/gds001/Gau-166641.chk"
 B after Tr=     0.000000    0.000000   -0.000000
         Rot=    1.000000   -0.000000    0.000000    0.000000 Ang=   0.00 deg.
 Initial guess orbital symmetries:
       Occupied  (A1) (A1) (E) (E) (A1)
       Virtual   (A1) (E) (E) (A1) (A1) (E) (E) (E) (E) (E) (E)
                 (A1) (A2) (A1) (E) (E) (A1) (E) (E) (E) (E) (A1)
                 (E) (E) (A1) (E) (E) (A1) (A2) (A1) (E) (E) (E)
                 (E) (E) (E) (A1) (A2) (E) (E) (E) (E) (A1) (E)
                 (E) (A1) (E) (E) (A1) (A2) (E) (E) (A1) (E) (E)
                 (A1) (E) (E) (E) (E) (A1) (E) (E) (A2) (E) (E)
                 (A1) (A1) (E) (E) (E) (E) (A1) (A2) (E) (E) (E)
                 (E) (A2) (A1) (E) (E) (A1) (E) (E) (A1) (E) (E)
                 (E) (E) (A2) (A1) (E) (E) (A1) (E) (E) (A1) (E)
                 (E) (A1) (E) (E) (A2) (A1) (E) (E) (E) (E) (A1)
 ExpMin= 2.53D-02 ExpMax= 1.14D+04 ExpMxC= 3.89D+02 IAcc=3 IRadAn=         5 AccDes= 0.00D+00
 Harris functional with IExCor=  205 and IRadAn=       5 diagonalized for initial guess.
 HarFok:  IExCor=  205 AccDes= 0.00D+00 IRadAn=         5 IDoV= 1 UseB2=F ITyADJ=14
 ICtDFT=  3500011 ScaDFX=  1.000000  1.000000  1.000000  1.000000
 FoFCou: FMM=F IPFlag=           0 FMFlag=      100000 FMFlg1=           0
         NFxFlg=           0 DoJE=T BraDBF=F KetDBF=T FulRan=T
         wScrn=  0.000000 ICntrl=       500 IOpCl=  0 I1Cent=   200000004 NGrid=           0
         NMat0=    1 NMatS0=      1 NMatT0=    0 NMatD0=    1 NMtDS0=    0 NMtDT0=    0
 Petite list used in FoFCou.
 Keep R1 ints in memory in symmetry-blocked form, NReq=37892007.
 Requested convergence on RMS density matrix=1.00D-08 within 128 cycles.
 Requested convergence on MAX density matrix=1.00D-06.
 Requested convergence on             energy=1.00D-06.
 No special actions if energy rises.
 SCF Done:  E(RHF) =  -56.2205984854     A.U. after    9 cycles
            NFock=  9  Conv=0.83D-08     -V/T= 2.0013
 ExpMin= 2.53D-02 ExpMax= 1.14D+04 ExpMxC= 3.89D+02 IAcc=3 IRadAn=         5 AccDes= 0.00D+00
 HarFok:  IExCor=  205 AccDes= 0.00D+00 IRadAn=         5 IDoV=-2 UseB2=F ITyADJ=14
 ICtDFT= 12500011 ScaDFX=  1.000000  1.000000  1.000000  1.000000
 Range of M.O.s used for correlation:     2   115
 NBasis=   115 NAE=     5 NBE=     5 NFC=     1 NFV=     0
 NROrb=    114 NOA=     4 NOB=     4 NVA=   110 NVB=   110

 **** Warning!!: The largest alpha MO coefficient is  0.17933600D+02

 Fully direct method using O(ONN) memory.
 JobTyp=1 Pass  1:  I=   2 to   5 NPSUse= 32 ParTrn=T ParDer=T DoDerP=T.
 Spin components of T(2) and E(2):
     alpha-alpha T2 =       0.7848449149D-02 E2=     -0.2651867072D-01
     alpha-beta  T2 =       0.5063726607D-01 E2=     -0.1866663599D+00
     beta-beta   T2 =       0.7848449149D-02 E2=     -0.2651867072D-01
 ANorm=    0.1032634574D+01
 E2 =    -0.2397037013D+00 EUMP2 =    -0.56460302186671D+02
          IDoAtm=1111
          Differentiating once with respect to electric field.
                with respect to dipole field.
          Differentiating once with respect to nuclear coordinates.
 Keep R1 ints in memory in symmetry-blocked form, NReq=37892879.
          There are     1 degrees of freedom in the 1st order CPHF.  IDoFFX=0 NUNeed=     1.
 LinEq1:  Iter=  0 NonCon=     1 RMS=3.33D-03 Max=3.59D-02 NDo=     1
 AX will form     1 AO Fock derivatives at one time.
 LinEq1:  Iter=  1 NonCon=     1 RMS=1.08D-03 Max=1.04D-02 NDo=     1
 LinEq1:  Iter=  2 NonCon=     1 RMS=3.97D-04 Max=3.21D-03 NDo=     1
 LinEq1:  Iter=  3 NonCon=     1 RMS=4.42D-05 Max=2.81D-04 NDo=     1
 LinEq1:  Iter=  4 NonCon=     1 RMS=8.08D-06 Max=7.09D-05 NDo=     1
 LinEq1:  Iter=  5 NonCon=     1 RMS=1.56D-06 Max=1.40D-05 NDo=     1
 LinEq1:  Iter=  6 NonCon=     1 RMS=2.36D-07 Max=2.17D-06 NDo=     1
 LinEq1:  Iter=  7 NonCon=     1 RMS=2.68D-08 Max=1.95D-07 NDo=     1
 LinEq1:  Iter=  8 NonCon=     1 RMS=2.91D-09 Max=2.32D-08 NDo=     1
 LinEq1:  Iter=  9 NonCon=     1 RMS=2.52D-10 Max=1.78D-09 NDo=     1
 LinEq1:  Iter= 10 NonCon=     0 RMS=2.37D-11 Max=1.64D-10 NDo=     1
 Linear equations converged to 1.000D-10 1.000D-09 after    10 iterations.
 End of Minotr F.D. properties file   721 does not exist.
 End of Minotr F.D. properties file   722 does not exist.
 End of Minotr F.D. properties file   788 does not exist.
 Calling FoFJK, ICntrl=  10002127 FMM=F ISym2X=1 I1Cent= 0 IOpClX= 0 NMat=1 NMatS=1 NMatT=0.
 ***** Axes restored to original set *****
 -------------------------------------------------------------------
 Center     Atomic                   Forces (Hartrees/Bohr)
 Number     Number              X              Y              Z
 -------------------------------------------------------------------
      1        7          -0.000000000    0.000000000    0.008396272
      2        1           0.002342669   -0.000000000   -0.002798757
      3        1          -0.001171334    0.002028810   -0.002798757
      4        1          -0.001171334   -0.002028810   -0.002798757
 -------------------------------------------------------------------
 Cartesian Forces:  Max     0.008396272 RMS     0.003033985
 -----------------------------------------------------------------------------------------------
                       Internal Coordinate Forces (Hartree/Bohr or radian)
  Cent   Atom   N1       Length/X         N2         Alpha/Y        N3         Beta/Z          J
 -----------------------------------------------------------------------------------------------
      1  N 
         X        1   0.000000(     1)
      2  H        1   0.003162(     2)      2   0.003466(     5)
      3  H        1   0.003162(     3)      2   0.003466(     6)      3   0.000000(     8)     0
      4  H        1   0.003162(     4)      2   0.003466(     7)      3  -0.000000(     9)     0
 -----------------------------------------------------------------------------------------------
 Internal  Forces:  Max     0.003466399 RMS     0.002708772

 GradGradGradGradGradGradGradGradGradGradGradGradGradGradGradGradGradGrad
 Berny optimization.
 Search for a local minimum.
 Step number   2 out of a maximum of   20
 All quantities printed in internal units (Hartrees-Bohrs-Radians)
 Update second derivatives using D2CorN and points    1    2
 DE= -1.07D-03 DEPred=-7.11D-04 R= 1.51D+00
 TightC=F SS=  1.41D+00  RLast= 5.52D-02 DXNew= 5.0454D-01 1.6570D-01
 Trust test= 1.51D+00 RLast= 5.52D-02 DXMaxT set to 3.00D-01
 The second derivative matrix:
                          R1        A1
           R1           1.39540
           A1          -0.10310   0.23801
 ITU=  1  0
     Eigenvalues ---    0.22890   1.40451
 RFO step:  Lambda=-1.57464159D-05 EMin= 2.28899982D-01
 Quartic linear search produced a step of  0.63814.
 Variable       Old X    -DE/DX   Delta X   Delta X   Delta X     New X
                                 (Linear)    (Quad)   (Total)
    R1        1.90108   0.00949   0.00725   0.00299   0.01024   1.91132
    A1        1.92156   0.01040   0.03449  -0.00263   0.03187   1.95342
         Item               Value     Threshold  Converged?
 Maximum Force            0.010399     0.000450     NO 
 RMS     Force            0.009953     0.000300     NO 
 Maximum Displacement     0.031866     0.001800     NO 
 RMS     Displacement     0.023667     0.001200     NO 
 Predicted change in Energy=-2.681503D-04
 GradGradGradGradGradGradGradGradGradGradGradGradGradGradGradGradGradGrad

 ---------------------------------------------------------------------------------------------------
                            Z-MATRIX (ANGSTROMS AND DEGREES)
   CD    Cent   Atom    N1       Length/X        N2       Alpha/Y        N3        Beta/Z          J
 ---------------------------------------------------------------------------------------------------
      1      1  N 
      2         X        1   1.000000(     1)
      3      2  H        1   1.011428(     2)      2  111.923(     5)
      4      3  H        1   1.011428(     3)      2  111.923(     6)      3 -120.000(     8)      0
      5      4  H        1   1.011428(     4)      2  111.923(     7)      3  120.000(     9)      0
 ---------------------------------------------------------------------------------------------------
                         Z-Matrix orientation:                         
 ---------------------------------------------------------------------
 Center     Atomic      Atomic             Coordinates (Angstroms)
 Number     Number       Type             X           Y           Z
 ---------------------------------------------------------------------
      1          7           0        0.000000    0.000000    0.000000
      2         -1           0        0.000000    0.000000    1.000000
      3          1           0        0.938289    0.000000   -0.377623
      4          1           0       -0.469145    0.812582   -0.377623
      5          1           0       -0.469145   -0.812582   -0.377623
 ---------------------------------------------------------------------
                    Distance matrix (angstroms):
                    1          2          3          4          5
     1  N    0.000000
     2  X    1.000000   0.000000
     3  H    1.011428   1.666803   0.000000
     4  H    1.011428   1.666803   1.625165   0.000000
     5  H    1.011428   1.666803   1.625165   1.625165   0.000000
 Stoichiometry    H3N
 Framework group  C3V[C3(N),3SGV(H)]
 Deg. of freedom     2
 Full point group                 C3V     NOp   6
 Largest Abelian subgroup         CS      NOp   2
 Largest concise Abelian subgroup CS      NOp   2
                         Standard orientation:                         
 ---------------------------------------------------------------------
 Center     Atomic      Atomic             Coordinates (Angstroms)
 Number     Number       Type             X           Y           Z
 ---------------------------------------------------------------------
      1          7           0        0.000000    0.000000    0.113287
      2          1           0        0.000000    0.938289   -0.264336
      3          1           0       -0.812582   -0.469145   -0.264336
      4          1           0        0.812582   -0.469145   -0.264336
 ---------------------------------------------------------------------
 Rotational constants (GHZ):         299.8393277         299.8393277         189.8616641
 Standard basis: Aug-CC-pVTZ (5D, 7F)
 There are    80 symmetry adapted cartesian basis functions of A'  symmetry.
 There are    50 symmetry adapted cartesian basis functions of A"  symmetry.
 There are    69 symmetry adapted basis functions of A'  symmetry.
 There are    46 symmetry adapted basis functions of A"  symmetry.
   115 basis functions,   153 primitive gaussians,   130 cartesian basis functions
     5 alpha electrons        5 beta electrons
       nuclear repulsion energy        11.9640053632 Hartrees.
 NAtoms=    4 NActive=    4 NUniq=    2 SFac= 4.00D+00 NAtFMM=   60 NAOKFM=F Big=F
 Integral buffers will be    131072 words long.
 Raffenetti 1 integral format.
 Two-electron integral symmetry is turned on.
 One-electron integrals computed using PRISM.
 NBasis=   115 RedAO= T EigKep=  2.70D-04  NBF=    69    46
 NBsUse=   115 1.00D-06 EigRej= -1.00D+00 NBFU=    69    46
 Initial guess from the checkpoint file:  "/gscratch/scrubbed/gds001/Gau-166641.chk"
 B after Tr=    -0.000000   -0.000000   -0.000000
         Rot=    1.000000   -0.000000    0.000000    0.000000 Ang=   0.00 deg.
 Initial guess orbital symmetries:
       Occupied  (A1) (A1) (E) (E) (A1)
       Virtual   (A1) (E) (E) (A1) (A1) (E) (E) (E) (E) (E) (E)
                 (A1) (A2) (A1) (E) (E) (A1) (E) (E) (E) (E) (A1)
                 (E) (E) (A1) (E) (E) (A1) (A1) (A2) (E) (E) (E)
                 (E) (E) (E) (A1) (A2) (E) (E) (E) (E) (A1) (E)
                 (E) (A1) (E) (E) (A1) (A2) (E) (E) (A1) (E) (E)
                 (A1) (E) (E) (E) (E) (A1) (A2) (E) (E) (E) (E)
                 (A1) (A1) (E) (E) (E) (E) (A1) (E) (E) (A2) (A2)
                 (E) (E) (A1) (E) (E) (A1) (E) (E) (A1) (E) (E)
                 (E) (E) (A2) (A1) (E) (E) (A1) (E) (E) (A1) (E)
                 (E) (A1) (E) (E) (A2) (A1) (E) (E) (E) (E) (A1)
 ExpMin= 2.53D-02 ExpMax= 1.14D+04 ExpMxC= 3.89D+02 IAcc=3 IRadAn=         5 AccDes= 0.00D+00
 Harris functional with IExCor=  205 and IRadAn=       5 diagonalized for initial guess.
 HarFok:  IExCor=  205 AccDes= 0.00D+00 IRadAn=         5 IDoV= 1 UseB2=F ITyADJ=14
 ICtDFT=  3500011 ScaDFX=  1.000000  1.000000  1.000000  1.000000
 FoFCou: FMM=F IPFlag=           0 FMFlag=      100000 FMFlg1=           0
         NFxFlg=           0 DoJE=T BraDBF=F KetDBF=T FulRan=T
         wScrn=  0.000000 ICntrl=       500 IOpCl=  0 I1Cent=   200000004 NGrid=           0
         NMat0=    1 NMatS0=      1 NMatT0=    0 NMatD0=    1 NMtDS0=    0 NMtDT0=    0
 Petite list used in FoFCou.
 Keep R1 ints in memory in symmetry-blocked form, NReq=37892007.
 Requested convergence on RMS density matrix=1.00D-08 within 128 cycles.
 Requested convergence on MAX density matrix=1.00D-06.
 Requested convergence on             energy=1.00D-06.
 No special actions if energy rises.
 SCF Done:  E(RHF) =  -56.2203776450     A.U. after    9 cycles
            NFock=  9  Conv=0.47D-08     -V/T= 2.0016
 ExpMin= 2.53D-02 ExpMax= 1.14D+04 ExpMxC= 3.89D+02 IAcc=3 IRadAn=         5 AccDes= 0.00D+00
 HarFok:  IExCor=  205 AccDes= 0.00D+00 IRadAn=         5 IDoV=-2 UseB2=F ITyADJ=14
 ICtDFT= 12500011 ScaDFX=  1.000000  1.000000  1.000000  1.000000
 Range of M.O.s used for correlation:     2   115
 NBasis=   115 NAE=     5 NBE=     5 NFC=     1 NFV=     0
 NROrb=    114 NOA=     4 NOB=     4 NVA=   110 NVB=   110

 **** Warning!!: The largest alpha MO coefficient is  0.18279631D+02

 Fully direct method using O(ONN) memory.
 JobTyp=1 Pass  1:  I=   2 to   5 NPSUse= 32 ParTrn=T ParDer=T DoDerP=T.
 Spin components of T(2) and E(2):
     alpha-alpha T2 =       0.7898377433D-02 E2=     -0.2655326689D-01
     alpha-beta  T2 =       0.5102614581D-01 E2=     -0.1870550453D+00
     beta-beta   T2 =       0.7898377433D-02 E2=     -0.2655326689D-01
 ANorm=    0.1032871193D+01
 E2 =    -0.2401615791D+00 EUMP2 =    -0.56460539224126D+02
          IDoAtm=1111
          Differentiating once with respect to electric field.
                with respect to dipole field.
          Differentiating once with respect to nuclear coordinates.
 Keep R1 ints in memory in symmetry-blocked form, NReq=37892879.
          There are     1 degrees of freedom in the 1st order CPHF.  IDoFFX=0 NUNeed=     1.
 LinEq1:  Iter=  0 NonCon=     1 RMS=3.38D-03 Max=3.57D-02 NDo=     1
 AX will form     1 AO Fock derivatives at one time.
 LinEq1:  Iter=  1 NonCon=     1 RMS=1.10D-03 Max=1.05D-02 NDo=     1
 LinEq1:  Iter=  2 NonCon=     1 RMS=4.07D-04 Max=3.44D-03 NDo=     1
 LinEq1:  Iter=  3 NonCon=     1 RMS=4.58D-05 Max=2.91D-04 NDo=     1
 LinEq1:  Iter=  4 NonCon=     1 RMS=8.64D-06 Max=7.26D-05 NDo=     1
 LinEq1:  Iter=  5 NonCon=     1 RMS=1.67D-06 Max=1.53D-05 NDo=     1
 LinEq1:  Iter=  6 NonCon=     1 RMS=2.39D-07 Max=2.13D-06 NDo=     1
 LinEq1:  Iter=  7 NonCon=     1 RMS=2.63D-08 Max=1.82D-07 NDo=     1
 LinEq1:  Iter=  8 NonCon=     1 RMS=2.86D-09 Max=2.23D-08 NDo=     1
 LinEq1:  Iter=  9 NonCon=     1 RMS=2.42D-10 Max=1.69D-09 NDo=     1
 LinEq1:  Iter= 10 NonCon=     0 RMS=2.21D-11 Max=1.52D-10 NDo=     1
 Linear equations converged to 1.000D-10 1.000D-09 after    10 iterations.
 End of Minotr F.D. properties file   721 does not exist.
 End of Minotr F.D. properties file   722 does not exist.
 End of Minotr F.D. properties file   788 does not exist.
 Calling FoFJK, ICntrl=  10002127 FMM=F ISym2X=1 I1Cent= 0 IOpClX= 0 NMat=1 NMatS=1 NMatT=0.
 ***** Axes restored to original set *****
 -------------------------------------------------------------------
 Center     Atomic                   Forces (Hartrees/Bohr)
 Number     Number              X              Y              Z
 -------------------------------------------------------------------
      1        7          -0.000000000    0.000000000    0.000827062
      2        1           0.000372084   -0.000000000   -0.000275687
      3        1          -0.000186042    0.000322235   -0.000275687
      4        1          -0.000186042   -0.000322235   -0.000275687
 -------------------------------------------------------------------
 Cartesian Forces:  Max     0.000827062 RMS     0.000332589
 -----------------------------------------------------------------------------------------------
                       Internal Coordinate Forces (Hartree/Bohr or radian)
  Cent   Atom   N1       Length/X         N2         Alpha/Y        N3         Beta/Z          J
 -----------------------------------------------------------------------------------------------
      1  N 
         X        1   0.000000(     1)
      2  H        1   0.000448(     2)      2   0.000223(     5)
      3  H        1   0.000448(     3)      2   0.000223(     6)      3   0.000000(     8)     0
      4  H        1   0.000448(     4)      2   0.000223(     7)      3  -0.000000(     9)     0
 -----------------------------------------------------------------------------------------------
 Internal  Forces:  Max     0.000448108 RMS     0.000289059

 GradGradGradGradGradGradGradGradGradGradGradGradGradGradGradGradGradGrad
 Berny optimization.
 Search for a local minimum.
 Step number   3 out of a maximum of   20
 All quantities printed in internal units (Hartrees-Bohrs-Radians)
 Update second derivatives using D2CorN and points    1    2    3
 DE= -2.37D-04 DEPred=-2.68D-04 R= 8.84D-01
 TightC=F SS=  1.41D+00  RLast= 3.35D-02 DXNew= 5.0454D-01 1.0041D-01
 Trust test= 8.84D-01 RLast= 3.35D-02 DXMaxT set to 3.00D-01
 The second derivative matrix:
                          R1        A1
           R1           1.36196
           A1          -0.14757   0.34163
 ITU=  1  1  0
     Eigenvalues ---    0.32072   1.38288
 RFO step:  Lambda=-3.69563535D-07 EMin= 3.20719492D-01
 Quartic linear search produced a step of  0.08205.
 Variable       Old X    -DE/DX   Delta X   Delta X   Delta X     New X
                                 (Linear)    (Quad)   (Total)
    R1        1.91132   0.00134   0.00084   0.00043   0.00127   1.91259
    A1        1.95342   0.00067   0.00261  -0.00043   0.00219   1.95561
         Item               Value     Threshold  Converged?
 Maximum Force            0.001344     0.000450     NO 
 RMS     Force            0.001062     0.000300     NO 
 Maximum Displacement     0.002189     0.001800     NO 
 RMS     Displacement     0.001790     0.001200     NO 
 Predicted change in Energy=-1.667051D-06
 GradGradGradGradGradGradGradGradGradGradGradGradGradGradGradGradGradGrad

 ---------------------------------------------------------------------------------------------------
                            Z-MATRIX (ANGSTROMS AND DEGREES)
   CD    Cent   Atom    N1       Length/X        N2       Alpha/Y        N3        Beta/Z          J
 ---------------------------------------------------------------------------------------------------
      1      1  N 
      2         X        1   1.000000(     1)
      3      2  H        1   1.012101(     2)      2  112.048(     5)
      4      3  H        1   1.012101(     3)      2  112.048(     6)      3 -120.000(     8)      0
      5      4  H        1   1.012101(     4)      2  112.048(     7)      3  120.000(     9)      0
 ---------------------------------------------------------------------------------------------------
                         Z-Matrix orientation:                         
 ---------------------------------------------------------------------
 Center     Atomic      Atomic             Coordinates (Angstroms)
 Number     Number       Type             X           Y           Z
 ---------------------------------------------------------------------
      1          7           0        0.000000    0.000000    0.000000
      2         -1           0        0.000000    0.000000    1.000000
      3          1           0        0.938084    0.000000   -0.379929
      4          1           0       -0.469042    0.812405   -0.379929
      5          1           0       -0.469042   -0.812405   -0.379929
 ---------------------------------------------------------------------
                    Distance matrix (angstroms):
                    1          2          3          4          5
     1  N    0.000000
     2  X    1.000000   0.000000
     3  H    1.012101   1.668594   0.000000
     4  H    1.012101   1.668594   1.624809   0.000000
     5  H    1.012101   1.668594   1.624809   1.624809   0.000000
 Stoichiometry    H3N
 Framework group  C3V[C3(N),3SGV(H)]
 Deg. of freedom     2
 Full point group                 C3V     NOp   6
 Largest Abelian subgroup         CS      NOp   2
 Largest concise Abelian subgroup CS      NOp   2
                         Standard orientation:                         
 ---------------------------------------------------------------------
 Center     Atomic      Atomic             Coordinates (Angstroms)
 Number     Number       Type             X           Y           Z
 ---------------------------------------------------------------------
      1          7           0        0.000000    0.000000    0.113979
      2          1           0        0.000000    0.938084   -0.265951
      3          1           0       -0.812405   -0.469042   -0.265951
      4          1           0        0.812405   -0.469042   -0.265951
 ---------------------------------------------------------------------
 Rotational constants (GHZ):         299.1716985         299.1716985         189.9447817
 Standard basis: Aug-CC-pVTZ (5D, 7F)
 There are    80 symmetry adapted cartesian basis functions of A'  symmetry.
 There are    50 symmetry adapted cartesian basis functions of A"  symmetry.
 There are    69 symmetry adapted basis functions of A'  symmetry.
 There are    46 symmetry adapted basis functions of A"  symmetry.
   115 basis functions,   153 primitive gaussians,   130 cartesian basis functions
     5 alpha electrons        5 beta electrons
       nuclear repulsion energy        11.9569143427 Hartrees.
 NAtoms=    4 NActive=    4 NUniq=    2 SFac= 4.00D+00 NAtFMM=   60 NAOKFM=F Big=F
 Integral buffers will be    131072 words long.
 Raffenetti 1 integral format.
 Two-electron integral symmetry is turned on.
 One-electron integrals computed using PRISM.
 NBasis=   115 RedAO= T EigKep=  2.70D-04  NBF=    69    46
 NBsUse=   115 1.00D-06 EigRej= -1.00D+00 NBFU=    69    46
 Initial guess from the checkpoint file:  "/gscratch/scrubbed/gds001/Gau-166641.chk"
 B after Tr=     0.000000    0.000000    0.000000
         Rot=    1.000000   -0.000000   -0.000000   -0.000000 Ang=   0.00 deg.
 Initial guess orbital symmetries:
       Occupied  (A1) (A1) (E) (E) (A1)
       Virtual   (A1) (E) (E) (A1) (A1) (E) (E) (E) (E) (E) (E)
                 (A1) (A2) (A1) (E) (E) (A1) (E) (E) (E) (E) (A1)
                 (E) (E) (A1) (E) (E) (A1) (A1) (A2) (E) (E) (E)
                 (E) (A1) (E) (E) (A2) (E) (E) (E) (E) (A1) (E)
                 (E) (A1) (E) (E) (A1) (E) (E) (A2) (A1) (E) (E)
                 (A1) (E) (E) (E) (E) (A1) (A2) (E) (E) (E) (E)
                 (A1) (A1) (E) (E) (E) (E) (A1) (E) (E) (A2) (A2)
                 (E) (E) (A1) (E) (E) (A1) (E) (E) (A1) (E) (E)
                 (E) (E) (A2) (A1) (E) (E) (A1) (E) (E) (A1) (E)
                 (E) (A1) (E) (E) (A2) (A1) (E) (E) (E) (E) (A1)
 Keep R1 ints in memory in symmetry-blocked form, NReq=37892007.
 Requested convergence on RMS density matrix=1.00D-08 within 128 cycles.
 Requested convergence on MAX density matrix=1.00D-06.
 Requested convergence on             energy=1.00D-06.
 No special actions if energy rises.
 SCF Done:  E(RHF) =  -56.2203260682     A.U. after    7 cycles
            NFock=  7  Conv=0.71D-08     -V/T= 2.0016
 ExpMin= 2.53D-02 ExpMax= 1.14D+04 ExpMxC= 3.89D+02 IAcc=3 IRadAn=         5 AccDes= 0.00D+00
 HarFok:  IExCor=  205 AccDes= 0.00D+00 IRadAn=         5 IDoV=-2 UseB2=F ITyADJ=14
 ICtDFT= 12500011 ScaDFX=  1.000000  1.000000  1.000000  1.000000
 Range of M.O.s used for correlation:     2   115
 NBasis=   115 NAE=     5 NBE=     5 NFC=     1 NFV=     0
 NROrb=    114 NOA=     4 NOB=     4 NVA=   110 NVB=   110

 **** Warning!!: The largest alpha MO coefficient is  0.18340386D+02

 Fully direct method using O(ONN) memory.
 JobTyp=1 Pass  1:  I=   2 to   5 NPSUse= 32 ParTrn=T ParDer=T DoDerP=T.
 Spin components of T(2) and E(2):
     alpha-alpha T2 =       0.7904503108D-02 E2=     -0.2655774463D-01
     alpha-beta  T2 =       0.5107292443D-01 E2=     -0.1870993102D+00
     beta-beta   T2 =       0.7904503108D-02 E2=     -0.2655774463D-01
 ANorm=    0.1032899768D+01
 E2 =    -0.2402147995D+00 EUMP2 =    -0.56460540867646D+02
          IDoAtm=1111
          Differentiating once with respect to electric field.
                with respect to dipole field.
          Differentiating once with respect to nuclear coordinates.
 Keep R1 ints in memory in symmetry-blocked form, NReq=37892879.
          There are     1 degrees of freedom in the 1st order CPHF.  IDoFFX=0 NUNeed=     1.
 LinEq1:  Iter=  0 NonCon=     1 RMS=3.39D-03 Max=3.57D-02 NDo=     1
 AX will form     1 AO Fock derivatives at one time.
 LinEq1:  Iter=  1 NonCon=     1 RMS=1.10D-03 Max=1.05D-02 NDo=     1
 LinEq1:  Iter=  2 NonCon=     1 RMS=4.08D-04 Max=3.46D-03 NDo=     1
 LinEq1:  Iter=  3 NonCon=     1 RMS=4.60D-05 Max=2.92D-04 NDo=     1
 LinEq1:  Iter=  4 NonCon=     1 RMS=8.69D-06 Max=7.28D-05 NDo=     1
 LinEq1:  Iter=  5 NonCon=     1 RMS=1.68D-06 Max=1.54D-05 NDo=     1
 LinEq1:  Iter=  6 NonCon=     1 RMS=2.40D-07 Max=2.13D-06 NDo=     1
 LinEq1:  Iter=  7 NonCon=     1 RMS=2.63D-08 Max=1.81D-07 NDo=     1
 LinEq1:  Iter=  8 NonCon=     1 RMS=2.86D-09 Max=2.22D-08 NDo=     1
 LinEq1:  Iter=  9 NonCon=     1 RMS=2.42D-10 Max=1.69D-09 NDo=     1
 LinEq1:  Iter= 10 NonCon=     0 RMS=2.21D-11 Max=1.51D-10 NDo=     1
 Linear equations converged to 1.000D-10 1.000D-09 after    10 iterations.
 End of Minotr F.D. properties file   721 does not exist.
 End of Minotr F.D. properties file   722 does not exist.
 End of Minotr F.D. properties file   788 does not exist.
 Calling FoFJK, ICntrl=  10002127 FMM=F ISym2X=1 I1Cent= 0 IOpClX= 0 NMat=1 NMatS=1 NMatT=0.
 ***** Axes restored to original set *****
 -------------------------------------------------------------------
 Center     Atomic                   Forces (Hartrees/Bohr)
 Number     Number              X              Y              Z
 -------------------------------------------------------------------
      1        7          -0.000000000    0.000000000    0.000029432
      2        1           0.000008946   -0.000000000   -0.000009811
      3        1          -0.000004473    0.000007748   -0.000009811
      4        1          -0.000004473   -0.000007748   -0.000009811
 -------------------------------------------------------------------
 Cartesian Forces:  Max     0.000029432 RMS     0.000010782
 -----------------------------------------------------------------------------------------------
                       Internal Coordinate Forces (Hartree/Bohr or radian)
  Cent   Atom   N1       Length/X         N2         Alpha/Y        N3         Beta/Z          J
 -----------------------------------------------------------------------------------------------
      1  N 
         X        1   0.000000(     1)
      2  H        1   0.000012(     2)      2   0.000011(     5)
      3  H        1   0.000012(     3)      2   0.000011(     6)      3   0.000000(     8)     0
      4  H        1   0.000012(     4)      2   0.000011(     7)      3  -0.000000(     9)     0
 -----------------------------------------------------------------------------------------------
 Internal  Forces:  Max     0.000011975 RMS     0.000009376

 GradGradGradGradGradGradGradGradGradGradGradGradGradGradGradGradGradGrad
 Berny optimization.
 Search for a local minimum.
 Step number   4 out of a maximum of   20
 All quantities printed in internal units (Hartrees-Bohrs-Radians)
 Update second derivatives using D2CorN and points    2    3    4
 DE= -1.64D-06 DEPred=-1.67D-06 R= 9.86D-01
 TightC=F SS=  1.41D+00  RLast= 2.53D-03 DXNew= 5.0454D-01 7.5955D-03
 Trust test= 9.86D-01 RLast= 2.53D-03 DXMaxT set to 3.00D-01
 The second derivative matrix:
                          R1        A1
           R1           1.34009
           A1          -0.16420   0.37673
 ITU=  1  1  1
     Eigenvalues ---    0.34951   1.36731
 RFO step:  Lambda= 0.00000000D+00 EMin= 3.49513515D-01
 Quartic linear search produced a step of  0.03876.
 Variable       Old X    -DE/DX   Delta X   Delta X   Delta X     New X
                                 (Linear)    (Quad)   (Total)
    R1        1.91259   0.00004   0.00005  -0.00001   0.00004   1.91263
    A1        1.95561   0.00003   0.00008   0.00002   0.00010   1.95571
         Item               Value     Threshold  Converged?
 Maximum Force            0.000036     0.000450     YES
 RMS     Force            0.000034     0.000300     YES
 Maximum Displacement     0.000104     0.001800     YES
 RMS     Displacement     0.000079     0.001200     YES
 Predicted change in Energy=-2.431872D-09
 Optimization completed.
    -- Stationary point found.
                       ----------------------------
                       !   Optimized Parameters   !
                       ! (Angstroms and Degrees)  !
 ----------------------                            ----------------------
 !      Name          Value   Derivative information (Atomic Units)     !
 ------------------------------------------------------------------------
 !       R1          1.0121   -DE/DX =    0.0                           !
 !       A1        112.0482   -DE/DX =    0.0                           !
 ------------------------------------------------------------------------
 GradGradGradGradGradGradGradGradGradGradGradGradGradGradGradGradGradGrad

 ---------------------------------------------------------------------------------------------------
                            Z-MATRIX (ANGSTROMS AND DEGREES)
   CD    Cent   Atom    N1       Length/X        N2       Alpha/Y        N3        Beta/Z          J
 ---------------------------------------------------------------------------------------------------
      1      1  N 
      2         X        1   1.000000(     1)
      3      2  H        1   1.012101(     2)      2  112.048(     5)
      4      3  H        1   1.012101(     3)      2  112.048(     6)      3 -120.000(     8)      0
      5      4  H        1   1.012101(     4)      2  112.048(     7)      3  120.000(     9)      0
 ---------------------------------------------------------------------------------------------------
                         Z-Matrix orientation:                         
 ---------------------------------------------------------------------
 Center     Atomic      Atomic             Coordinates (Angstroms)
 Number     Number       Type             X           Y           Z
 ---------------------------------------------------------------------
      1          7           0        0.000000    0.000000    0.000000
      2         -1           0        0.000000    0.000000    1.000000
      3          1           0        0.938084    0.000000   -0.379929
      4          1           0       -0.469042    0.812405   -0.379929
      5          1           0       -0.469042   -0.812405   -0.379929
 ---------------------------------------------------------------------
                    Distance matrix (angstroms):
                    1          2          3          4          5
     1  N    0.000000
     2  X    1.000000   0.000000
     3  H    1.012101   1.668594   0.000000
     4  H    1.012101   1.668594   1.624809   0.000000
     5  H    1.012101   1.668594   1.624809   1.624809   0.000000
 Stoichiometry    H3N
 Framework group  C3V[C3(N),3SGV(H)]
 Deg. of freedom     2
 Full point group                 C3V     NOp   6
 Largest Abelian subgroup         CS      NOp   2
 Largest concise Abelian subgroup CS      NOp   2
                         Standard orientation:                         
 ---------------------------------------------------------------------
 Center     Atomic      Atomic             Coordinates (Angstroms)
 Number     Number       Type             X           Y           Z
 ---------------------------------------------------------------------
      1          7           0        0.000000    0.000000    0.113979
      2          1           0        0.000000    0.938084   -0.265951
      3          1           0       -0.812405   -0.469042   -0.265951
      4          1           0        0.812405   -0.469042   -0.265951
 ---------------------------------------------------------------------
 Rotational constants (GHZ):         299.1716985         299.1716985         189.9447817

 **********************************************************************

            Population analysis using the SCF density.

 **********************************************************************

 Orbital symmetries:
       Occupied  (A1) (A1) (E) (E) (A1)
       Virtual   (A1) (E) (E) (A1) (A1) (E) (E) (E) (E) (E) (E)
                 (A1) (A2) (A1) (E) (E) (A1) (E) (E) (E) (E) (A1)
                 (E) (E) (A1) (E) (E) (A1) (A1) (A2) (E) (E) (E)
                 (E) (A1) (E) (E) (A2) (E) (E) (E) (E) (A1) (E)
                 (E) (A1) (E) (E) (A1) (E) (E) (A2) (A1) (E) (E)
                 (A1) (E) (E) (E) (E) (A1) (A2) (E) (E) (E) (E)
                 (A1) (A1) (E) (E) (E) (E) (A1) (E) (E) (A2) (A2)
                 (E) (E) (A1) (E) (E) (A1) (E) (E) (A1) (E) (E)
                 (E) (E) (A2) (A1) (E) (E) (A1) (E) (E) (A1) (E)
                 (E) (A1) (E) (E) (A2) (A1) (E) (E) (E) (E) (A1)
 The electronic state is 1-A1.
 Alpha  occ. eigenvalues --  -15.54171  -1.14245  -0.62885  -0.62885  -0.42932
 Alpha virt. eigenvalues --    0.02954   0.04868   0.04868   0.11788   0.15244
 Alpha virt. eigenvalues --    0.16233   0.16233   0.22147   0.22147   0.23538
 Alpha virt. eigenvalues --    0.23538   0.25459   0.35597   0.35802   0.37067
 Alpha virt. eigenvalues --    0.37067   0.42820   0.46087   0.46087   0.48688
 Alpha virt. eigenvalues --    0.48688   0.56358   0.60218   0.60218   0.74923
 Alpha virt. eigenvalues --    0.78623   0.78623   0.81105   0.88333   0.90237
 Alpha virt. eigenvalues --    0.91455   0.91455   0.98082   0.98082   1.03491
 Alpha virt. eigenvalues --    1.03556   1.03556   1.08128   1.10386   1.10386
 Alpha virt. eigenvalues --    1.14210   1.14210   1.18554   1.21924   1.21924
 Alpha virt. eigenvalues --    1.32185   1.36313   1.36313   1.61658   1.75891
 Alpha virt. eigenvalues --    1.75891   1.76237   1.86442   1.86459   1.86459
 Alpha virt. eigenvalues --    2.00333   2.04106   2.04106   2.04920   2.04920
 Alpha virt. eigenvalues --    2.27124   2.34438   2.37348   2.37348   2.43663
 Alpha virt. eigenvalues --    2.43663   2.47397   3.38899   3.56138   3.56138
 Alpha virt. eigenvalues --    3.96960   3.96960   4.04294   4.14085   4.14085
 Alpha virt. eigenvalues --    4.21427   4.21970   4.26005   4.26005   4.32346
 Alpha virt. eigenvalues --    4.35977   4.35977   4.47188   4.54953   4.54953
 Alpha virt. eigenvalues --    4.69086   4.74618   4.74618   4.93956   4.93956
 Alpha virt. eigenvalues --    4.98239   5.06316   5.06343   5.06343   5.25183
 Alpha virt. eigenvalues --    5.67091   5.67091   5.73191   5.89896   5.89896
 Alpha virt. eigenvalues --    6.06067   6.32400   6.32400   6.42745   6.63109
 Alpha virt. eigenvalues --    6.93833   6.93833   7.68702   7.68702  17.24628
          Condensed to atoms (all electrons):
               1          2          3          4
     1  N    6.587304   0.336399   0.336399   0.336399
     2  H    0.336399   0.461330   0.001719   0.001719
     3  H    0.336399   0.001719   0.461330   0.001719
     4  H    0.336399   0.001719   0.001719   0.461330
 Mulliken charges:
               1
     1  N   -0.596499
     2  H    0.198833
     3  H    0.198833
     4  H    0.198833
 Sum of Mulliken charges =  -0.00000
 Mulliken charges with hydrogens summed into heavy atoms:
               1
     1  N   -0.000000
 Electronic spatial extent (au):  <R**2>=             26.6457
 Charge=             -0.0000 electrons
 Dipole moment (field-independent basis, Debye):
    X=             -0.0000    Y=              0.0000    Z=             -1.6117  Tot=              1.6117
 Quadrupole moment (field-independent basis, Debye-Ang):
   XX=             -6.2215   YY=             -6.2215   ZZ=             -9.2599
   XY=             -0.0000   XZ=             -0.0000   YZ=             -0.0000
 Traceless Quadrupole moment (field-independent basis, Debye-Ang):
   XX=              1.0128   YY=              1.0128   ZZ=             -2.0256
   XY=             -0.0000   XZ=             -0.0000   YZ=             -0.0000
 Octapole moment (field-independent basis, Debye-Ang**2):
  XXX=              0.0000  YYY=              0.9738  ZZZ=             -1.3747  XYY=              0.0000
  XXY=             -0.9738  XXZ=             -0.9038  XZZ=              0.0000  YZZ=              0.0000
  YYZ=             -0.9038  XYZ=              0.0000
 Hexadecapole moment (field-independent basis, Debye-Ang**3):
 XXXX=             -9.9838 YYYY=             -9.9838 ZZZZ=            -12.2209 XXXY=              0.0000
 XXXZ=              0.0000 YYYX=              0.0000 YYYZ=             -0.3597 ZZZX=             -0.0000
 ZZZY=             -0.0000 XXYY=             -3.3279 XXZZ=             -3.8548 YYZZ=             -3.8548
 XXYZ=              0.3597 YYXZ=             -0.0000 ZZXY=              0.0000
 N-N= 1.195691434274D+01 E-N=-1.557411461598D+02  KE= 5.612900997064D+01
 Symmetry A'   KE= 5.351470329371D+01
 Symmetry A"   KE= 2.614306676932D+00
 1\1\GINC-N2398\FOpt\RMP2-FC\Aug-CC-pVTZ\H3N1\GDS001\30-Mar-2023\1\\# m
 p2/aug-cc-pVTZ opt=(z-matrix) freq\\Opt To Minimum\\0,1\N\X,1,1.\H,1,R
 1,2,A1\H,1,R1,2,A1,3,-120.,0\H,1,R1,2,A1,3,120.,0\\R1=1.01210074\A1=11
 2.04823132\\Version=ES64L-G16RevA.03\State=1-A1\HF=-56.2203261\MP2=-56
 .4605409\RMSD=7.120e-09\RMSF=1.078e-05\Dipole=0.,0.,-0.5976065\PG=C03V
  [C3(N1),3SGV(H1)]\\@


 THERE ARE TWO THINGS THAT EVERYBODY THINKS THEY CAN DO BETTER THAN
 ANYONE ELSE - PUNCH THE FIRE, AND EDIT A DAILY PAPER.
 -- UNCLE ESEK, "CENTURY MAGAZINE", 1885
 Job cpu time:       0 days  0 hours  8 minutes 52.2 seconds.
 Elapsed time:       0 days  0 hours  0 minutes 20.4 seconds.
 File lengths (MBytes):  RWF=     72 Int=      0 D2E=      0 Chk=      8 Scr=      8
 Normal termination of Gaussian 16 at Thu Mar 30 17:17:02 2023.
 Link1:  Proceeding to internal job step number  2.
 ----------------------------------------------------------------------
 #N Geom=AllCheck Guess=TCheck SCRF=Check GenChk RMP2(FC)/Aug-CC-pVTZ F
 req
 ----------------------------------------------------------------------
 1/10=4,29=7,30=1,38=1,40=1/1,3;
 2/12=2,40=1/2;
 3/5=16,6=1,7=10,11=1,14=-4,25=1,30=1,70=2,71=2,116=1,140=1/1,2,3;
 4/5=101/1;
 5/5=2,38=6,98=1/2;
 8/6=3,8=1,10=1,19=11,30=-1/1;
 9/15=3,16=-3/6;
 11/6=1,8=1,15=11,17=12,24=-1,27=1,28=-2,29=300,32=6,42=3/1,2,10;
 10/6=2,21=1/2;
 8/6=4,8=1,10=1,19=11,30=-1/11,4;
 10/5=1,20=4/2;
 11/12=2,14=11,16=1,17=2,28=-2,42=3/2,10,12;
 6/7=2,8=2,9=2,10=2/1;
 7/8=1,10=1,12=2,25=1,44=2/1,2,3,16;
 1/10=4,30=1/3;
 99//99;
 Structure from the checkpoint file:  "/gscratch/scrubbed/gds001/Gau-166641.chk"
 --------------
 Opt To Minimum
 --------------
 Charge =  0 Multiplicity = 1
 Z-Matrix found in chk file.
 N
 X,1,1.
 H,1,R1,2,A1
 H,1,R1,2,A1,3,-120.,0
 H,1,R1,2,A1,3,120.,0
      Variables:
 R1=1.01210074
 A1=112.04823132
 Recover connectivity data from disk.

 GradGradGradGradGradGradGradGradGradGradGradGradGradGradGradGradGradGrad
 Berny optimization.
 Initialization pass.
                       ----------------------------
                       !    Initial Parameters    !
                       ! (Angstroms and Degrees)  !
 ----------------------                            ----------------------
 !      Name          Value   Derivative information (Atomic Units)     !
 ------------------------------------------------------------------------
 !       R1          1.0121   calculate D2E/DX2 analytically            !
 !       A1        112.0482   calculate D2E/DX2 analytically            !
 ------------------------------------------------------------------------
 Trust Radius=3.00D-01 FncErr=1.00D-07 GrdErr=1.00D-07 EigMax=2.50D+02 EigMin=1.00D-04
 Number of steps in this run=      2 maximum allowed number of steps=      2.
 GradGradGradGradGradGradGradGradGradGradGradGradGradGradGradGradGradGrad

                          Input orientation:                          
 ---------------------------------------------------------------------
 Center     Atomic      Atomic             Coordinates (Angstroms)
 Number     Number       Type             X           Y           Z
 ---------------------------------------------------------------------
      1          7           0        0.000000    0.000000    0.000000
      2          1           0        0.938084   -0.000000   -0.379929
      3          1           0       -0.469042    0.812405   -0.379929
      4          1           0       -0.469042   -0.812405   -0.379929
 ---------------------------------------------------------------------
                    Distance matrix (angstroms):
                    1          2          3          4
     1  N    0.000000
     2  H    1.012101   0.000000
     3  H    1.012101   1.624809   0.000000
     4  H    1.012101   1.624809   1.624809   0.000000
 Stoichiometry    H3N
 Framework group  C3V[C3(N),3SGV(H)]
 Deg. of freedom     2
 Full point group                 C3V     NOp   6
 Largest Abelian subgroup         CS      NOp   2
 Largest concise Abelian subgroup CS      NOp   2
                         Standard orientation:                         
 ---------------------------------------------------------------------
 Center     Atomic      Atomic             Coordinates (Angstroms)
 Number     Number       Type             X           Y           Z
 ---------------------------------------------------------------------
      1          7           0        0.000000    0.000000    0.113979
      2          1           0        0.000000    0.938084   -0.265951
      3          1           0       -0.812405   -0.469042   -0.265951
      4          1           0        0.812405   -0.469042   -0.265951
 ---------------------------------------------------------------------
 Rotational constants (GHZ):         299.1716985         299.1716985         189.9447817
 Standard basis: Aug-CC-pVTZ (5D, 7F)
 There are    80 symmetry adapted cartesian basis functions of A'  symmetry.
 There are    50 symmetry adapted cartesian basis functions of A"  symmetry.
 There are    69 symmetry adapted basis functions of A'  symmetry.
 There are    46 symmetry adapted basis functions of A"  symmetry.
   115 basis functions,   153 primitive gaussians,   130 cartesian basis functions
     5 alpha electrons        5 beta electrons
       nuclear repulsion energy        11.9569143427 Hartrees.
 NAtoms=    4 NActive=    4 NUniq=    2 SFac= 4.00D+00 NAtFMM=   60 NAOKFM=F Big=F
 Integral buffers will be    131072 words long.
 Raffenetti 1 integral format.
 Two-electron integral symmetry is turned on.
 One-electron integrals computed using PRISM.
 NBasis=   115 RedAO= T EigKep=  2.70D-04  NBF=    69    46
 NBsUse=   115 1.00D-06 EigRej= -1.00D+00 NBFU=    69    46
 Initial guess from the checkpoint file:  "/gscratch/scrubbed/gds001/Gau-166641.chk"
 B after Tr=     0.000000    0.000000    0.000000
         Rot=    1.000000    0.000000    0.000000    0.000000 Ang=   0.00 deg.
 Initial guess orbital symmetries:
       Occupied  (A1) (A1) (E) (E) (A1)
       Virtual   (A1) (E) (E) (A1) (A1) (E) (E) (E) (E) (E) (E)
                 (A1) (A2) (A1) (E) (E) (A1) (E) (E) (E) (E) (A1)
                 (E) (E) (A1) (E) (E) (A1) (A1) (A2) (E) (E) (E)
                 (E) (A1) (E) (E) (A2) (E) (E) (E) (E) (A1) (E)
                 (E) (A1) (E) (E) (A1) (E) (E) (A2) (A1) (E) (E)
                 (A1) (E) (E) (E) (E) (A1) (A2) (E) (E) (E) (E)
                 (A1) (A1) (E) (E) (E) (E) (A1) (E) (E) (A2) (A2)
                 (E) (E) (A1) (E) (E) (A1) (E) (E) (A1) (E) (E)
                 (E) (E) (A2) (A1) (E) (E) (A1) (E) (E) (A1) (E)
                 (E) (A1) (E) (E) (A2) (A1) (E) (E) (E) (E) (A1)
 Keep R1 ints in memory in symmetry-blocked form, NReq=37892007.
 Requested convergence on RMS density matrix=1.00D-08 within 128 cycles.
 Requested convergence on MAX density matrix=1.00D-06.
 Requested convergence on             energy=1.00D-06.
 No special actions if energy rises.
 SCF Done:  E(RHF) =  -56.2203260682     A.U. after    1 cycles
            NFock=  1  Conv=0.59D-09     -V/T= 2.0016
 ExpMin= 2.53D-02 ExpMax= 1.14D+04 ExpMxC= 3.89D+02 IAcc=3 IRadAn=         5 AccDes= 0.00D+00
 HarFok:  IExCor=  205 AccDes= 0.00D+00 IRadAn=         5 IDoV=-2 UseB2=F ITyADJ=14
 ICtDFT= 12500011 ScaDFX=  1.000000  1.000000  1.000000  1.000000
 Range of M.O.s used for correlation:     2   115
 NBasis=   115 NAE=     5 NBE=     5 NFC=     1 NFV=     0
 NROrb=    114 NOA=     4 NOB=     4 NVA=   110 NVB=   110

 **** Warning!!: The largest alpha MO coefficient is  0.18340386D+02

 Disk-based method using ON**2 memory for  4 occupieds at a time.
 Permanent disk used for amplitudes=      362450 words.
 Estimated scratch disk usage=    10935330 words.
 Actual    scratch disk usage=    10935330 words.
 JobTyp=1 Pass  1:  I=   2 to   5 NPSUse= 32 ParTrn=T ParDer=T DoDerP=T.
 (rs|ai) integrals will be sorted in core.
 Spin components of T(2) and E(2):
     alpha-alpha T2 =       0.7904503377D-02 E2=     -0.2655774518D-01
     alpha-beta  T2 =       0.5107292558D-01 E2=     -0.1870993117D+00
     beta-beta   T2 =       0.7904503377D-02 E2=     -0.2655774518D-01
 ANorm=    0.1032899769D+01
 E2 =    -0.2402148020D+00 EUMP2 =    -0.56460540870206D+02
 G2DrvN: will do     5 centers at a time, making    1 passes.
 Calling FoFCou, ICntrl=  3107 FMM=F I1Cent=   0 AccDes= 0.00D+00.
 End of G2Drv F.D. properties file   721 does not exist.
 End of G2Drv F.D. properties file   722 does not exist.
 End of G2Drv F.D. properties file   788 does not exist.
          IDoAtm=1111
          Differentiating once with respect to electric field.
                with respect to dipole field.
          Differentiating once with respect to nuclear coordinates.
 Keep R1 ints in memory in symmetry-blocked form, NReq=37892879.
          There are    15 degrees of freedom in the 1st order CPHF.  IDoFFX=6 NUNeed=    15.
     12 vectors produced by pass  0 Test12= 3.67D-15 6.67D-09 XBig12= 3.20D+00 7.74D-01.
 AX will form    12 AO Fock derivatives at one time.
     12 vectors produced by pass  1 Test12= 3.67D-15 6.67D-09 XBig12= 1.59D-01 1.60D-01.
     12 vectors produced by pass  2 Test12= 3.67D-15 6.67D-09 XBig12= 3.23D-03 1.79D-02.
     12 vectors produced by pass  3 Test12= 3.67D-15 6.67D-09 XBig12= 3.83D-05 2.24D-03.
     12 vectors produced by pass  4 Test12= 3.67D-15 6.67D-09 XBig12= 2.65D-07 1.86D-04.
     12 vectors produced by pass  5 Test12= 3.67D-15 6.67D-09 XBig12= 1.90D-09 1.00D-05.
      7 vectors produced by pass  6 Test12= 3.67D-15 6.67D-09 XBig12= 9.96D-12 1.12D-06.
      3 vectors produced by pass  7 Test12= 3.67D-15 6.67D-09 XBig12= 6.40D-14 9.52D-08.
 InvSVY:  IOpt=1 It=  1 EMax= 6.66D-16
 Solved reduced A of dimension    82 with    12 vectors.
 End of Minotr F.D. properties file   721 does not exist.
 End of Minotr F.D. properties file   722 does not exist.
 End of Minotr F.D. properties file   788 does not exist.
 MDV=  5502926848.
 Form MO integral derivatives with frozen-active canonical formalism.
 Discarding MO integrals.
 Reordered first order wavefunction length =       605000
 In DefCFB: NBatch=  1 ICI=  5 ICA=110 LFMax= 55
            Large arrays: LIAPS=    32890000 LIARS=    27527500 words.
 Semi-Direct transformation.
 ModeAB=           4 MOrb=             5 LenV=    5502426459
 LASXX=      3665255 LTotXX=     3665255 LenRXX=     7425555
 LTotAB=     3760300 MaxLAS=     3538550 LenRXY=           0
 NonZer=    11090810 LenScr=    16777216 LnRSAI=     3538550
 LnScr1=     5767168 LExtra=           0 Total=     33508489
 MaxDsk=          -1 SrtSym=           T ITran=            4
 JobTyp=0 Pass  1:  I=   1 to   5.
 (rs|ai) integrals will be sorted in core.
 Spin components of T(2) and E(2):
     alpha-alpha T2 =       0.7904503377D-02 E2=     -0.2655774518D-01
     alpha-beta  T2 =       0.5107292558D-01 E2=     -0.1870993117D+00
     beta-beta   T2 =       0.7904503377D-02 E2=     -0.2655774518D-01
 ANorm=    0.1460740862D+01
 E2 =    -0.2402148020D+00 EUMP2 =    -0.56460540870206D+02
          IDoAtm=1111
          Differentiating once with respect to electric field.
                with respect to dipole field.
          Differentiating once with respect to nuclear coordinates.
          There are     1 degrees of freedom in the 1st order CPHF.  IDoFFX=0 NUNeed=     1.
 LinEq1:  Iter=  0 NonCon=     1 RMS=3.39D-03 Max=3.57D-02 NDo=     1
 LinEq1:  Iter=  1 NonCon=     1 RMS=1.10D-03 Max=1.05D-02 NDo=     1
 LinEq1:  Iter=  2 NonCon=     1 RMS=4.08D-04 Max=3.46D-03 NDo=     1
 LinEq1:  Iter=  3 NonCon=     1 RMS=4.60D-05 Max=2.92D-04 NDo=     1
 LinEq1:  Iter=  4 NonCon=     1 RMS=8.69D-06 Max=7.28D-05 NDo=     1
 LinEq1:  Iter=  5 NonCon=     1 RMS=1.68D-06 Max=1.54D-05 NDo=     1
 LinEq1:  Iter=  6 NonCon=     1 RMS=2.40D-07 Max=2.13D-06 NDo=     1
 LinEq1:  Iter=  7 NonCon=     1 RMS=2.63D-08 Max=1.81D-07 NDo=     1
 LinEq1:  Iter=  8 NonCon=     1 RMS=2.86D-09 Max=2.22D-08 NDo=     1
 LinEq1:  Iter=  9 NonCon=     1 RMS=2.42D-10 Max=1.69D-09 NDo=     1
 LinEq1:  Iter= 10 NonCon=     0 RMS=2.21D-11 Max=1.51D-10 NDo=     1
 Linear equations converged to 1.000D-10 1.000D-09 after    10 iterations.
 End of Minotr F.D. properties file   721 does not exist.
 End of Minotr F.D. properties file   722 does not exist.
 End of Minotr F.D. properties file   788 does not exist.
 Symmetrizing basis deriv contribution to polar:
 IMax=3 JMax=2 DiffMx= 0.00D+00
 G2DrvN: will do     5 centers at a time, making    1 passes.
 Calling FoFCou, ICntrl=  3107 FMM=F I1Cent=   0 AccDes= 0.00D+00.
 End of G2Drv F.D. properties file   721 does not exist.
 End of G2Drv F.D. properties file   722 does not exist.
 End of G2Drv F.D. properties file   788 does not exist.
 R2 and R3 integrals will be kept in memory, NReq=    74453740.
 DD1Dir will call FoFMem   1 times, MxPair=        30
 NAB=    15 NAA=     0 NBB=     0.
 Discarding MO integrals.

 **********************************************************************

            Population analysis using the SCF density.

 **********************************************************************

 Orbital symmetries:
       Occupied  (A1) (A1) (E) (E) (A1)
       Virtual   (A1) (E) (E) (A1) (A1) (E) (E) (E) (E) (E) (E)
                 (A1) (A2) (A1) (E) (E) (A1) (E) (E) (E) (E) (A1)
                 (E) (E) (A1) (E) (E) (A1) (A1) (A2) (E) (E) (E)
                 (E) (A1) (E) (E) (A2) (E) (E) (E) (E) (A1) (E)
                 (E) (A1) (E) (E) (A1) (E) (E) (A2) (A1) (E) (E)
                 (A1) (E) (E) (E) (E) (A1) (A2) (E) (E) (E) (E)
                 (A1) (A1) (E) (E) (E) (E) (A1) (E) (E) (A2) (A2)
                 (E) (E) (A1) (E) (E) (A1) (E) (E) (A1) (E) (E)
                 (E) (E) (A2) (A1) (E) (E) (A1) (E) (E) (A1) (E)
                 (E) (A1) (E) (E) (A2) (A1) (E) (E) (E) (E) (A1)
 The electronic state is 1-A1.
 Alpha  occ. eigenvalues --  -15.54171  -1.14245  -0.62885  -0.62885  -0.42932
 Alpha virt. eigenvalues --    0.02954   0.04868   0.04868   0.11788   0.15244
 Alpha virt. eigenvalues --    0.16233   0.16233   0.22147   0.22147   0.23538
 Alpha virt. eigenvalues --    0.23538   0.25459   0.35597   0.35802   0.37067
 Alpha virt. eigenvalues --    0.37067   0.42820   0.46087   0.46087   0.48688
 Alpha virt. eigenvalues --    0.48688   0.56358   0.60218   0.60218   0.74923
 Alpha virt. eigenvalues --    0.78623   0.78623   0.81105   0.88333   0.90237
 Alpha virt. eigenvalues --    0.91455   0.91455   0.98082   0.98082   1.03491
 Alpha virt. eigenvalues --    1.03556   1.03556   1.08128   1.10386   1.10386
 Alpha virt. eigenvalues --    1.14210   1.14210   1.18554   1.21924   1.21924
 Alpha virt. eigenvalues --    1.32185   1.36313   1.36313   1.61658   1.75891
 Alpha virt. eigenvalues --    1.75891   1.76237   1.86442   1.86459   1.86459
 Alpha virt. eigenvalues --    2.00333   2.04106   2.04106   2.04920   2.04920
 Alpha virt. eigenvalues --    2.27124   2.34438   2.37348   2.37348   2.43663
 Alpha virt. eigenvalues --    2.43663   2.47397   3.38899   3.56138   3.56138
 Alpha virt. eigenvalues --    3.96960   3.96960   4.04294   4.14085   4.14085
 Alpha virt. eigenvalues --    4.21427   4.21970   4.26005   4.26005   4.32346
 Alpha virt. eigenvalues --    4.35977   4.35977   4.47188   4.54953   4.54953
 Alpha virt. eigenvalues --    4.69086   4.74618   4.74618   4.93956   4.93956
 Alpha virt. eigenvalues --    4.98239   5.06316   5.06343   5.06343   5.25183
 Alpha virt. eigenvalues --    5.67091   5.67091   5.73191   5.89896   5.89896
 Alpha virt. eigenvalues --    6.06067   6.32400   6.32400   6.42745   6.63109
 Alpha virt. eigenvalues --    6.93833   6.93833   7.68702   7.68702  17.24628
          Condensed to atoms (all electrons):
               1          2          3          4
     1  N    6.587304   0.336399   0.336399   0.336399
     2  H    0.336399   0.461330   0.001719   0.001719
     3  H    0.336399   0.001719   0.461330   0.001719
     4  H    0.336399   0.001719   0.001719   0.461330
 Mulliken charges:
               1
     1  N   -0.596500
     2  H    0.198833
     3  H    0.198833
     4  H    0.198833
 Sum of Mulliken charges =   0.00000
 Mulliken charges with hydrogens summed into heavy atoms:
               1
     1  N    0.000000
 APT charges:
               1
     1  N   -0.434542
     2  H    0.144847
     3  H    0.144847
     4  H    0.144847
 Sum of APT charges =   0.00000
 APT charges with hydrogens summed into heavy atoms:
               1
     1  N    0.000000
 Electronic spatial extent (au):  <R**2>=             26.6457
 Charge=              0.0000 electrons
 Dipole moment (field-independent basis, Debye):
    X=             -0.0000    Y=             -0.0000    Z=             -1.6117  Tot=              1.6117
 Quadrupole moment (field-independent basis, Debye-Ang):
   XX=             -6.2215   YY=             -6.2215   ZZ=             -9.2599
   XY=             -0.0000   XZ=              0.0000   YZ=              0.0000
 Traceless Quadrupole moment (field-independent basis, Debye-Ang):
   XX=              1.0128   YY=              1.0128   ZZ=             -2.0256
   XY=             -0.0000   XZ=              0.0000   YZ=              0.0000
 Octapole moment (field-independent basis, Debye-Ang**2):
  XXX=             -0.0000  YYY=              0.9738  ZZZ=             -1.3747  XYY=              0.0000
  XXY=             -0.9738  XXZ=             -0.9038  XZZ=              0.0000  YZZ=              0.0000
  YYZ=             -0.9038  XYZ=              0.0000
 Hexadecapole moment (field-independent basis, Debye-Ang**3):
 XXXX=             -9.9838 YYYY=             -9.9838 ZZZZ=            -12.2209 XXXY=              0.0000
 XXXZ=              0.0000 YYYX=              0.0000 YYYZ=             -0.3597 ZZZX=             -0.0000
 ZZZY=             -0.0000 XXYY=             -3.3279 XXZZ=             -3.8548 YYZZ=             -3.8548
 XXYZ=              0.3597 YYXZ=             -0.0000 ZZXY=              0.0000
 N-N= 1.195691434274D+01 E-N=-1.557411462299D+02  KE= 5.612901002956D+01
 Symmetry A'   KE= 5.351470326759D+01
 Symmetry A"   KE= 2.614306761971D+00
  Exact polarizability:  13.633  -0.000  13.633   0.000  -0.000  15.303
 Approx polarizability:  10.839  -0.000  10.839   0.000   0.000  10.594
 Calling FoFJK, ICntrl=  10100127 FMM=F ISym2X=1 I1Cent= 0 IOpClX= 0 NMat=1 NMatS=1 NMatT=0.
 Full mass-weighted force constant matrix:
 Low frequencies ---  -14.0175  -14.0169  -11.5029    0.0016    0.0018    0.0018
 Low frequencies --- 1037.1465 1668.8670 1668.8670
 Diagonal vibrational polarizability:
        0.1553972       0.1553972       3.4912281
 Harmonic frequencies (cm**-1), IR intensities (KM/Mole), Raman scattering
 activities (A**4/AMU), depolarization ratios for plane and unpolarized
 incident light, reduced masses (AMU), force constants (mDyne/A),
 and normal coordinates:
                      1                      2                      3
                     A1                      E                      E
 Frequencies --   1037.1465              1668.8670              1668.8670
 Red. masses --      1.1812                 1.0664                 1.0664
 Frc consts  --      0.7486                 1.7500                 1.7500
 IR Inten    --    139.2516                14.3238                14.3238
  Atom  AN      X      Y      Z        X      Y      Z        X      Y      Z
     1   7     0.00   0.00  -0.12    -0.00  -0.07  -0.00    -0.07   0.00   0.00
     2   1    -0.00   0.21   0.53     0.00  -0.14  -0.25     0.76   0.00   0.00
     3   1    -0.18  -0.10   0.53    -0.39   0.54   0.13     0.09  -0.39   0.22
     4   1     0.18  -0.10   0.53     0.39   0.54   0.13     0.09   0.39  -0.22
                      4                      5                      6
                     A1                      E                      E
 Frequencies --   3503.1029              3650.1139              3650.1139
 Red. masses --      1.0263                 1.0893                 1.0893
 Frc consts  --      7.4205                 8.5511                 8.5511
 IR Inten    --      3.3871                 8.4129                 8.4129
  Atom  AN      X      Y      Z        X      Y      Z        X      Y      Z
     1   7     0.00  -0.00   0.04    -0.08  -0.00   0.00     0.00  -0.08  -0.00
     2   1    -0.00   0.55  -0.17    -0.02   0.00  -0.00     0.00   0.76  -0.30
     3   1    -0.48  -0.27  -0.17     0.56   0.34   0.26     0.34   0.17   0.15
     4   1     0.48  -0.27  -0.17     0.56  -0.34  -0.26    -0.34   0.17   0.15

 -------------------
 - Thermochemistry -
 -------------------
 Temperature   298.150 Kelvin.  Pressure   1.00000 Atm.
 Atom     1 has atomic number  7 and mass  14.00307
 Atom     2 has atomic number  1 and mass   1.00783
 Atom     3 has atomic number  1 and mass   1.00783
 Atom     4 has atomic number  1 and mass   1.00783
 Molecular mass:    17.02655 amu.
 Principal axes and moments of inertia in atomic units:
                           1         2         3
     Eigenvalues --     6.03246   6.03246   9.50140
           X            0.83721   0.54688   0.00000
           Y           -0.54688   0.83721   0.00000
           Z           -0.00000  -0.00000   1.00000
 This molecule is an oblate symmetric top.
 Rotational symmetry number  3.
 Rotational temperatures (Kelvin)     14.35798    14.35798     9.11591
 Rotational constants (GHZ):         299.17170   299.17170   189.94478
 Zero-point vibrational energy      90785.9 (Joules/Mol)
                                   21.69834 (Kcal/Mol)
 Vibrational temperatures:   1492.22  2401.13  2401.13  5040.18  5251.70
          (Kelvin)           5251.70
 
 Zero-point correction=                           0.034579 (Hartree/Particle)
 Thermal correction to Energy=                    0.037448
 Thermal correction to Enthalpy=                  0.038392
 Thermal correction to Gibbs Free Energy=         0.016555
 Sum of electronic and zero-point Energies=            -56.425962
 Sum of electronic and thermal Energies=               -56.423093
 Sum of electronic and thermal Enthalpies=             -56.422149
 Sum of electronic and thermal Free Energies=          -56.443986
 
                     E (Thermal)             CV                S
                      KCal/Mol        Cal/Mol-Kelvin    Cal/Mol-Kelvin
 Total                   23.499              6.382             45.961
 Electronic               0.000              0.000              0.000
 Translational            0.889              2.981             34.441
 Rotational               0.889              2.981             11.428
 Vibrational             21.721              0.420              0.092
                       Q            Log10(Q)             Ln(Q)
 Total Bot       0.242917D-07         -7.614542        -17.533131
 Total V=0       0.195189D+09          8.290454         19.089477
 Vib (Bot)       0.125372D-15        -15.901798        -36.615244
 Vib (V=0)       0.100739D+01          0.003198          0.007364
 Electronic      0.100000D+01          0.000000          0.000000
 Translational   0.276149D+07          6.441144         14.831282
 Rotational      0.701637D+02          1.846113          4.250831
 ***** Axes restored to original set *****
 -------------------------------------------------------------------
 Center     Atomic                   Forces (Hartrees/Bohr)
 Number     Number              X              Y              Z
 -------------------------------------------------------------------
      1        7           0.000000000    0.000000000    0.000029442
      2        1           0.000008950   -0.000000000   -0.000009814
      3        1          -0.000004475    0.000007751   -0.000009814
      4        1          -0.000004475   -0.000007751   -0.000009814
 -------------------------------------------------------------------
 Cartesian Forces:  Max     0.000029442 RMS     0.000010786
 -----------------------------------------------------------------------------------------------
                       Internal Coordinate Forces (Hartree/Bohr or radian)
  Cent   Atom   N1       Length/X         N2         Alpha/Y        N3         Beta/Z          J
 -----------------------------------------------------------------------------------------------
      1  N 
         X        1   0.000000(     1)
      2  H        1   0.000012(     2)      2   0.000011(     5)
      3  H        1   0.000012(     3)      2   0.000011(     6)      3  -0.000000(     8)     0
      4  H        1   0.000012(     4)      2   0.000011(     7)      3   0.000000(     9)     0
 -----------------------------------------------------------------------------------------------
 Internal  Forces:  Max     0.000011979 RMS     0.000009379

 GradGradGradGradGradGradGradGradGradGradGradGradGradGradGradGradGradGrad
 Berny optimization.
 Search for a local minimum.
 Step number   1 out of a maximum of    2
 All quantities printed in internal units (Hartrees-Bohrs-Radians)
 Second derivative matrix not updated -- analytic derivatives used.
 The second derivative matrix:
                          R1        A1
           R1           1.36870
           A1          -0.19935   0.40895
 ITU=  0
     Eigenvalues ---    0.36919   1.40846
 Angle between quadratic step and forces=  25.36 degrees.
 Linear search not attempted -- first point.
 Variable       Old X    -DE/DX   Delta X   Delta X   Delta X     New X
                                 (Linear)    (Quad)   (Total)
    R1        1.91259   0.00004   0.00000   0.00004   0.00004   1.91263
    A1        1.95561   0.00003   0.00000   0.00010   0.00010   1.95571
         Item               Value     Threshold  Converged?
 Maximum Force            0.000036     0.000450     YES
 RMS     Force            0.000034     0.000300     YES
 Maximum Displacement     0.000100     0.001800     YES
 RMS     Displacement     0.000077     0.001200     YES
 Predicted change in Energy=-2.387282D-09
 Optimization completed.
    -- Stationary point found.
                       ----------------------------
                       !   Optimized Parameters   !
                       ! (Angstroms and Degrees)  !
 ----------------------                            ----------------------
 !      Name          Value   Derivative information (Atomic Units)     !
 ------------------------------------------------------------------------
 !       R1          1.0121   -DE/DX =    0.0                           !
 !       A1        112.0482   -DE/DX =    0.0                           !
 ------------------------------------------------------------------------
 GradGradGradGradGradGradGradGradGradGradGradGradGradGradGradGradGradGrad


 ----------------------------------------------------------------------

 Electric dipole moment (input orientation):
 (Debye = 10**-18 statcoulomb cm , SI units = C m)
                  (au)            (Debye)         (10**-30 SI)
   Tot        0.597606D+00      0.151896D+01      0.506672D+01
   x          0.000000D+00      0.000000D+00      0.000000D+00
   y          0.000000D+00      0.000000D+00      0.000000D+00
   z         -0.597606D+00     -0.151896D+01     -0.506672D+01

 Dipole polarizability, Alpha (input orientation).
 (esu units = cm**3 , SI units = C**2 m**2 J**-1)
 Alpha(0;0):
               (au)            (10**-24 esu)      (10**-40 SI)
   iso        0.141893D+02      0.210264D+01      0.233950D+01
   aniso      0.166988D+01      0.247451D+00      0.275326D+00
   xx         0.136327D+02      0.202015D+01      0.224772D+01
   yx         0.000000D+00      0.000000D+00      0.000000D+00
   yy         0.136327D+02      0.202015D+01      0.224772D+01
   zx         0.000000D+00      0.000000D+00      0.000000D+00
   zy         0.000000D+00      0.000000D+00      0.000000D+00
   zz         0.153026D+02      0.226761D+01      0.252305D+01

 ----------------------------------------------------------------------

 Dipole orientation:
     7          0.00000000         -0.00000000          0.00000000
     1          1.77272180          0.00000000          0.71796255
     1         -0.88636090         -1.53522211          0.71796255
     1         -0.88636090          1.53522211          0.71796255

 Electric dipole moment (dipole orientation):
 (Debye = 10**-18 statcoulomb cm , SI units = C m)
                  (au)            (Debye)         (10**-30 SI)
   Tot        0.597606D+00      0.151896D+01      0.506672D+01
   x          0.000000D+00      0.000000D+00      0.000000D+00
   y          0.000000D+00      0.000000D+00      0.000000D+00
   z          0.597606D+00      0.151896D+01      0.506672D+01

 Dipole polarizability, Alpha (dipole orientation).
 (esu units = cm**3 , SI units = C**2 m**2 J**-1)
 Alpha(0;0):
               (au)            (10**-24 esu)      (10**-40 SI)
   iso        0.141893D+02      0.210264D+01      0.233950D+01
   aniso      0.166988D+01      0.247451D+00      0.275326D+00
   xx         0.136327D+02      0.202015D+01      0.224772D+01
   yx         0.000000D+00      0.000000D+00      0.000000D+00
   yy         0.136327D+02      0.202015D+01      0.224772D+01
   zx         0.000000D+00      0.000000D+00      0.000000D+00
   zy         0.000000D+00      0.000000D+00      0.000000D+00
   zz         0.153026D+02      0.226761D+01      0.252305D+01

 ----------------------------------------------------------------------
 1\1\GINC-N2398\Freq\RMP2-FC\Aug-CC-pVTZ\H3N1\GDS001\30-Mar-2023\1\\#N 
 Geom=AllCheck Guess=TCheck SCRF=Check GenChk RMP2(FC)/Aug-CC-pVTZ Freq
 \\Opt To Minimum\\0,1\N\X,1,1.\H,1,R1,2,A1\H,1,R1,2,A1,3,-120.,0\H,1,R
 1,2,A1,3,120.,0\\R1=1.01210074\A1=112.04823132\\Version=ES64L-G16RevA.
 03\State=1-A1\HF=-56.2203261\MP2=-56.4605409\RMSD=5.933e-10\RMSF=1.079
 e-05\ZeroPoint=0.0345785\Thermal=0.0374478\Dipole=0.,0.,-0.5976064\Dip
 oleDeriv=-0.3859471,0.,0.,0.,-0.3859471,0.,0.,0.,-0.5317323,0.1103436,
 0.,0.1046635,0.,0.1469545,0.,0.1205343,0.,0.1772441,0.1378018,0.015852
 9,-0.0523318,0.0158529,0.1194963,0.0906413,-0.0602672,0.1043858,0.1772
 441,0.1378018,-0.0158529,-0.0523318,-0.0158529,0.1194963,-0.0906413,-0
 .0602672,-0.1043858,0.1772441\Polar=13.6326776,0.,13.6326776,0.,0.,15.
 3025605\PG=C03V [C3(N1),3SGV(H1)]\NImag=0\\0.65660871,0.,0.65660871,0.
 ,0.,0.21637379,-0.37869604,0.,0.12082642,0.41210825,0.,-0.05904310,0.,
 0.,0.05854868,0.17729794,0.,-0.07212460,-0.14252855,0.,0.07190930,-0.1
 3895633,0.13841379,-0.06041321,-0.01670610,0.03366329,-0.01738470,0.14
 693857,0.13841378,-0.29878281,0.10463875,-0.00429929,0.00024721,0.0024
 9267,-0.15309578,0.32371836,-0.08864897,0.15354452,-0.07212459,0.01085
 107,-0.01380925,0.00010765,0.07126428,-0.12343335,0.07190930,-0.138956
 33,-0.13841379,-0.06041321,-0.01670610,-0.03366329,-0.01738470,0.00872
 386,0.01898129,0.00653363,0.14693857,-0.13841378,-0.29878281,-0.104638
 75,0.00429929,0.00024721,-0.00249267,-0.01898129,-0.02518276,-0.016301
 92,0.15309578,0.32371836,-0.08864897,-0.15354452,-0.07212459,0.0108510
 7,0.01380925,0.00010765,0.00653363,0.01630192,0.00010765,0.07126428,0.
 12343335,0.07190930\\0.,0.,-0.00002944,-0.00000895,0.,0.00000981,0.000
 00447,-0.00000775,0.00000981,0.00000447,0.00000775,0.00000981\\\@


 ADVERTISING--  HE WHO HAS SOMETHING TO SELL AND GOES AND WHISPERS
                IN A WELL, IS NOT SO APT TO GET THE DOLLARS AS HE
                WHO CLIMBS A TREE AND HOLLERS.

                   -- FROM THE BACK OF A SUGAR PACKET
 Job cpu time:       0 days  0 hours 17 minutes 29.8 seconds.
 Elapsed time:       0 days  0 hours  0 minutes 35.5 seconds.
 File lengths (MBytes):  RWF=    552 Int=      0 D2E=      0 Chk=      8 Scr=      8
 Normal termination of Gaussian 16 at Thu Mar 30 17:17:38 2023.
