 Entering Gaussian System, Link 0=g16
 Input=nh3_mp2_avtz_scan.gjf
 Output=nh3_mp2_avtz_scan.log
 Initial command:
 /sw/contrib/gaussian/g16/A03/g16/l1.exe "/gscratch/scrubbed/gds001/Gau-16250.inp" -scrdir="/gscratch/scrubbed/gds001/"
 Entering Link 1 = /sw/contrib/gaussian/g16/A03/g16/l1.exe PID=     16251.
  
 Copyright (c) 1988,1990,1992,1993,1995,1998,2003,2009,2016,
            Gaussian, Inc.  All Rights Reserved.
  
 This is part of the Gaussian(R) 16 program.  It is based on
 the Gaussian(R) 09 system (copyright 2009, Gaussian, Inc.),
 the Gaussian(R) 03 system (copyright 2003, Gaussian, Inc.),
 the Gaussian(R) 98 system (copyright 1998, Gaussian, Inc.),
 the Gaussian(R) 94 system (copyright 1995, Gaussian, Inc.),
 the Gaussian 92(TM) system (copyright 1992, Gaussian, Inc.),
 the Gaussian 90(TM) system (copyright 1990, Gaussian, Inc.),
 the Gaussian 88(TM) system (copyright 1988, Gaussian, Inc.),
 the Gaussian 86(TM) system (copyright 1986, Carnegie Mellon
 University), and the Gaussian 82(TM) system (copyright 1983,
 Carnegie Mellon University). Gaussian is a federally registered
 trademark of Gaussian, Inc.
  
 This software contains proprietary and confidential information,
 including trade secrets, belonging to Gaussian, Inc.
  
 This software is provided under written license and may be
 used, copied, transmitted, or stored only in accord with that
 written license.
  
 The following legend is applicable only to US Government
 contracts under FAR:
  
                    RESTRICTED RIGHTS LEGEND
  
 Use, reproduction and disclosure by the US Government is
 subject to restrictions as set forth in subparagraphs (a)
 and (c) of the Commercial Computer Software - Restricted
 Rights clause in FAR 52.227-19.
  
 Gaussian, Inc.
 340 Quinnipiac St., Bldg. 40, Wallingford CT 06492
  
  
 ---------------------------------------------------------------
 Warning -- This program may not be used in any manner that
 competes with the business of Gaussian, Inc. or will provide
 assistance to any competitor of Gaussian, Inc.  The licensee
 of this program is prohibited from giving any competitor of
 Gaussian, Inc. access to this program.  By using this program,
 the user acknowledges that Gaussian, Inc. is engaged in the
 business of creating and licensing software in the field of
 computational chemistry and represents and warrants to the
 licensee that it is not a competitor of Gaussian, Inc. and that
 it will not use this program in any manner prohibited above.
 ---------------------------------------------------------------
  

 Cite this work as:
 Gaussian 16, Revision A.03,
 M. J. Frisch, G. W. Trucks, H. B. Schlegel, G. E. Scuseria, 
 M. A. Robb, J. R. Cheeseman, G. Scalmani, V. Barone, 
 G. A. Petersson, H. Nakatsuji, X. Li, M. Caricato, A. V. Marenich, 
 J. Bloino, B. G. Janesko, R. Gomperts, B. Mennucci, H. P. Hratchian, 
 J. V. Ortiz, A. F. Izmaylov, J. L. Sonnenberg, D. Williams-Young, 
 F. Ding, F. Lipparini, F. Egidi, J. Goings, B. Peng, A. Petrone, 
 T. Henderson, D. Ranasinghe, V. G. Zakrzewski, J. Gao, N. Rega, 
 G. Zheng, W. Liang, M. Hada, M. Ehara, K. Toyota, R. Fukuda, 
 J. Hasegawa, M. Ishida, T. Nakajima, Y. Honda, O. Kitao, H. Nakai, 
 T. Vreven, K. Throssell, J. A. Montgomery, Jr., J. E. Peralta, 
 F. Ogliaro, M. J. Bearpark, J. J. Heyd, E. N. Brothers, K. N. Kudin, 
 V. N. Staroverov, T. A. Keith, R. Kobayashi, J. Normand, 
 K. Raghavachari, A. P. Rendell, J. C. Burant, S. S. Iyengar, 
 J. Tomasi, M. Cossi, J. M. Millam, M. Klene, C. Adamo, R. Cammi, 
 J. W. Ochterski, R. L. Martin, K. Morokuma, O. Farkas, 
 J. B. Foresman, and D. J. Fox, Gaussian, Inc., Wallingford CT, 2016.
 
 ******************************************
 Gaussian 16:  ES64L-G16RevA.03 25-Dec-2016
                 9-Mar-2024 
 ******************************************
 %nprocshared=28
 Will use up to   28 processors via shared memory.
 %mem=41GB
 ----------------------------
 # mp2/aug-cc-pVTZ Pop=ChelpG
 ----------------------------
 1/38=1,172=1/1;
 2/12=2,17=6,18=5,40=1/2;
 3/5=16,6=1,7=10,11=9,25=1,30=1/1,2,3;
 4//1;
 5/5=2,38=5/2;
 8/10=1/1;
 9/16=-3/6;
 6/7=2,8=2,9=2,10=2,15=8,20=3/1,2;
 99/5=1,9=1/99;
 -----------------
 Title: R = 0.9121
 -----------------
 Symbolic Z-matrix:
 Charge =  0 Multiplicity = 1
 N
 X                    1     1. 
 H                    1    R1       2    A1
 H                    1    R2       2    A2       3    -D1      0
 H                    1    R2       2    A2       3    D1       0
       Variables:
  R2                    1.0121                   
  A1                  112.0482                   
  A2                  112.0482                   
  D1                  120.                       
  R1                    0.9121                   
 
                          Input orientation:                          
 ---------------------------------------------------------------------
 Center     Atomic      Atomic             Coordinates (Angstroms)
 Number     Number       Type             X           Y           Z
 ---------------------------------------------------------------------
      1          7           0        0.000000    0.000000    0.000000
      2          1           0        0.845397    0.000000   -0.342390
      3          1           0       -0.469042    0.812404   -0.379929
      4          1           0       -0.469042   -0.812404   -0.379929
 ---------------------------------------------------------------------
                    Distance matrix (angstroms):
                    1          2          3          4
     1  N    0.000000
     2  H    0.912100   0.000000
     3  H    1.012100   1.545690   0.000000
     4  H    1.012100   1.545690   1.624808   0.000000
 Stoichiometry    H3N
 Framework group  CS[SG(HN),X(H2)]
 Deg. of freedom     4
 Full point group                 CS      NOp   2
 Largest Abelian subgroup         CS      NOp   2
 Largest concise Abelian subgroup CS      NOp   2
                         Standard orientation:                         
 ---------------------------------------------------------------------
 Center     Atomic      Atomic             Coordinates (Angstroms)
 Number     Number       Type             X           Y           Z
 ---------------------------------------------------------------------
      1          7           0        0.000000    0.110614    0.000000
      2          1           0       -0.871114   -0.159734   -0.000000
      3          1           0        0.435557   -0.307281    0.812404
      4          1           0        0.435557   -0.307281   -0.812404
 ---------------------------------------------------------------------
 Rotational constants (GHZ):         336.9551860         304.0022301         202.3068360
 Standard basis: Aug-CC-pVTZ (5D, 7F)
 There are    80 symmetry adapted cartesian basis functions of A'  symmetry.
 There are    50 symmetry adapted cartesian basis functions of A"  symmetry.
 There are    69 symmetry adapted basis functions of A'  symmetry.
 There are    46 symmetry adapted basis functions of A"  symmetry.
   115 basis functions,   153 primitive gaussians,   130 cartesian basis functions
     5 alpha electrons        5 beta electrons
       nuclear repulsion energy        12.3915310550 Hartrees.
 NAtoms=    4 NActive=    4 NUniq=    3 SFac= 1.78D+00 NAtFMM=   60 NAOKFM=F Big=F
 Integral buffers will be    131072 words long.
 Raffenetti 1 integral format.
 Two-electron integral symmetry is turned on.
 One-electron integrals computed using PRISM.
 NBasis=   115 RedAO= T EigKep=  2.47D-04  NBF=    69    46
 NBsUse=   115 1.00D-06 EigRej= -1.00D+00 NBFU=    69    46
 ExpMin= 2.53D-02 ExpMax= 1.14D+04 ExpMxC= 3.89D+02 IAcc=3 IRadAn=         5 AccDes= 0.00D+00
 Harris functional with IExCor=  205 and IRadAn=       5 diagonalized for initial guess.
 HarFok:  IExCor=  205 AccDes= 0.00D+00 IRadAn=         5 IDoV= 1 UseB2=F ITyADJ=14
 ICtDFT=  3500011 ScaDFX=  1.000000  1.000000  1.000000  1.000000
 FoFCou: FMM=F IPFlag=           0 FMFlag=      100000 FMFlg1=           0
         NFxFlg=           0 DoJE=T BraDBF=F KetDBF=T FulRan=T
         wScrn=  0.000000 ICntrl=       500 IOpCl=  0 I1Cent=   200000004 NGrid=           0
         NMat0=    1 NMatS0=      1 NMatT0=    0 NMatD0=    1 NMtDS0=    0 NMtDT0=    0
 Petite list used in FoFCou.
 Initial guess orbital symmetries:
       Occupied  (A') (A') (A') (A") (A')
       Virtual   (A') (A") (A') (A') (A') (A") (A') (A') (A") (A")
                 (A') (A') (A') (A") (A') (A") (A") (A') (A') (A')
                 (A") (A') (A') (A") (A') (A") (A') (A') (A') (A")
                 (A') (A") (A") (A') (A') (A") (A') (A") (A') (A")
                 (A") (A') (A') (A") (A') (A') (A') (A") (A') (A")
                 (A') (A') (A") (A") (A') (A') (A") (A') (A") (A')
                 (A') (A") (A') (A") (A') (A") (A') (A') (A") (A')
                 (A') (A") (A') (A") (A") (A') (A") (A') (A") (A")
                 (A') (A') (A') (A") (A') (A') (A") (A') (A") (A")
                 (A') (A') (A') (A") (A') (A") (A') (A') (A') (A")
                 (A') (A") (A") (A') (A') (A") (A') (A") (A') (A')
 The electronic state of the initial guess is 1-A'.
 Keep R1 ints in memory in symmetry-blocked form, NReq=35942633.
 Requested convergence on RMS density matrix=1.00D-08 within 128 cycles.
 Requested convergence on MAX density matrix=1.00D-06.
 Requested convergence on             energy=1.00D-06.
 No special actions if energy rises.
 SCF Done:  E(RHF) =  -56.2120324323     A.U. after   10 cycles
            NFock= 10  Conv=0.32D-08     -V/T= 1.9978
 ExpMin= 2.53D-02 ExpMax= 1.14D+04 ExpMxC= 3.89D+02 IAcc=3 IRadAn=         5 AccDes= 0.00D+00
 HarFok:  IExCor=  205 AccDes= 0.00D+00 IRadAn=         5 IDoV=-2 UseB2=F ITyADJ=14
 ICtDFT= 12500011 ScaDFX=  1.000000  1.000000  1.000000  1.000000
 Range of M.O.s used for correlation:     2   115
 NBasis=   115 NAE=     5 NBE=     5 NFC=     1 NFV=     0
 NROrb=    114 NOA=     4 NOB=     4 NVA=   110 NVB=   110

 **** Warning!!: The largest alpha MO coefficient is  0.21912284D+02

 Fully in-core method, ICMem=    83850841.
 JobTyp=1 Pass  1 fully in-core, NPsUse= 28.
 Spin components of T(2) and E(2):
     alpha-alpha T2 =       0.7635669616D-02 E2=     -0.2638408309D-01
     alpha-beta  T2 =       0.4911844871D-01 E2=     -0.1854514283D+00
     beta-beta   T2 =       0.7635669616D-02 E2=     -0.2638408309D-01
 ANorm=    0.1031692681D+01
 E2 =    -0.2382195945D+00 EUMP2 =    -0.56450252026769D+02

 **********************************************************************

            Population analysis using the SCF density.

 **********************************************************************

 Orbital symmetries:
       Occupied  (A') (A') (A') (A") (A')
       Virtual   (A') (A') (A") (A') (A') (A') (A") (A") (A') (A')
                 (A") (A') (A") (A') (A") (A') (A') (A") (A') (A")
                 (A') (A') (A') (A") (A') (A") (A') (A') (A') (A")
                 (A') (A") (A") (A') (A') (A") (A') (A") (A') (A")
                 (A") (A') (A') (A') (A") (A') (A') (A") (A') (A")
                 (A') (A") (A') (A") (A') (A') (A") (A') (A") (A')
                 (A') (A") (A') (A") (A") (A') (A') (A') (A") (A')
                 (A") (A') (A') (A") (A') (A") (A") (A') (A") (A')
                 (A") (A') (A') (A") (A') (A') (A") (A') (A") (A')
                 (A") (A") (A') (A') (A') (A") (A') (A') (A') (A")
                 (A') (A") (A") (A') (A') (A") (A') (A") (A') (A')
 The electronic state is 1-A'.
 Alpha  occ. eigenvalues --  -15.52980  -1.16319  -0.65708  -0.62931  -0.43109
 Alpha virt. eigenvalues --    0.02978   0.04856   0.04859   0.11693   0.15351
 Alpha virt. eigenvalues --    0.16201   0.16226   0.22133   0.22649   0.23621
 Alpha virt. eigenvalues --    0.23677   0.25734   0.35725   0.35848   0.37097
 Alpha virt. eigenvalues --    0.37203   0.43255   0.45960   0.46564   0.48779
 Alpha virt. eigenvalues --    0.49971   0.56313   0.60472   0.60572   0.75413
 Alpha virt. eigenvalues --    0.78744   0.80211   0.81949   0.89319   0.90633
 Alpha virt. eigenvalues --    0.91668   0.91770   0.97768   0.99359   1.03234
 Alpha virt. eigenvalues --    1.03642   1.06804   1.08721   1.10757   1.10880
 Alpha virt. eigenvalues --    1.14501   1.14969   1.19780   1.22432   1.22712
 Alpha virt. eigenvalues --    1.31174   1.36152   1.36708   1.61761   1.75975
 Alpha virt. eigenvalues --    1.79635   1.80879   1.86197   1.86736   1.88804
 Alpha virt. eigenvalues --    2.01000   2.03746   2.05056   2.05666   2.08442
 Alpha virt. eigenvalues --    2.26762   2.34688   2.38670   2.39208   2.45734
 Alpha virt. eigenvalues --    2.45914   2.54481   3.40202   3.56972   3.59849
 Alpha virt. eigenvalues --    3.97353   3.99809   4.07699   4.15322   4.17360
 Alpha virt. eigenvalues --    4.23422   4.27776   4.29516   4.30537   4.35834
 Alpha virt. eigenvalues --    4.36877   4.38978   4.47639   4.55690   4.58568
 Alpha virt. eigenvalues --    4.72962   4.80648   4.82981   4.94755   5.03978
 Alpha virt. eigenvalues --    5.04735   5.09014   5.09122   5.16472   5.34284
 Alpha virt. eigenvalues --    5.64615   5.66039   5.82698   5.96961   6.05720
 Alpha virt. eigenvalues --    6.18301   6.41168   6.56088   6.60400   6.75101
 Alpha virt. eigenvalues --    7.05733   7.28754   7.70319   7.85837  18.41322
          Condensed to atoms (all electrons):
               1          2          3          4
     1  N    6.506441   0.365719   0.343108   0.343108
     2  H    0.365719   0.494006  -0.005985  -0.005985
     3  H    0.343108  -0.005985   0.457405   0.002407
     4  H    0.343108  -0.005985   0.002407   0.457405
 Mulliken charges:
               1
     1  N   -0.558375
     2  H    0.152245
     3  H    0.203065
     4  H    0.203065
 Sum of Mulliken charges =  -0.00000
 Mulliken charges with hydrogens summed into heavy atoms:
               1
     1  N   -0.000000
 Electronic spatial extent (au):  <R**2>=             25.8790
 Charge=             -0.0000 electrons
 Dipole moment (field-independent basis, Debye):
    X=             -0.1128    Y=             -1.6171    Z=             -0.0000  Tot=              1.6210
 Quadrupole moment (field-independent basis, Debye-Ang):
   XX=             -6.3253   YY=             -9.1170   ZZ=             -6.1173
   XY=             -0.2815   XZ=             -0.0000   YZ=             -0.0000
 Traceless Quadrupole moment (field-independent basis, Debye-Ang):
   XX=              0.8612   YY=             -1.9305   ZZ=              1.0692
   XY=             -0.2815   XZ=             -0.0000   YZ=             -0.0000
 Octapole moment (field-independent basis, Debye-Ang**2):
  XXX=             -1.0687  YYY=             -1.4556  ZZZ=             -0.0000  XYY=             -0.0237
  XXY=             -0.7638  XXZ=              0.0000  XZZ=              0.7947  YZZ=             -1.0188
  YYZ=             -0.0000  XYZ=              0.0000
 Hexadecapole moment (field-independent basis, Debye-Ang**3):
 XXXX=             -9.2351 YYYY=            -11.9490 ZZZZ=             -9.8647 XXXY=              0.2570
 XXXZ=              0.0000 YYYX=              0.1067 YYYZ=              0.0000 ZZZX=              0.0000
 ZZZY=              0.0000 XXYY=             -3.6796 XXZZ=             -3.1783 YYZZ=             -3.7230
 XXYZ=              0.0000 YYXZ=              0.0000 ZZXY=             -0.3439
 N-N= 1.239153105496D+01 E-N=-1.567194066323D+02  KE= 5.633324266886D+01
 Symmetry A'   KE= 5.372414592964D+01
 Symmetry A"   KE= 2.609096739223D+00
 Breneman (CHELPG) radii used.
 Generate Potential Derived Charges using the Breneman model, NDens= 1.
 Grid spacing= 0.300 Box extension= 2.800
 NStep X,Y,Z=   25     22     26   Total possible points=       14300
 Number of Points to Fit=    4614

 **********************************************************************

            Electrostatic Properties Using The SCF Density

 **********************************************************************

       Atomic Center    1 is at   0.000000  0.110614  0.000000
       Atomic Center    2 is at  -0.871114 -0.159734 -0.000000
       Atomic Center    3 is at   0.435557 -0.307281  0.812404
       Atomic Center    4 is at   0.435557 -0.307281 -0.812404
    4614 points will be used for fitting atomic charges
 Fitting point charges to electrostatic potential
 Charges from ESP fit, RMS=   0.00379 RRMS=   0.22456:
 ESP charges:
               1
     1  N   -0.948650
     2  H    0.335115
     3  H    0.306768
     4  H    0.306768
 Sum of ESP charges =  -0.00000
 ESP charges with hydrogens summed into heavy atoms:
               1
     1  N   -0.000000
 Charge=  -0.00000 Dipole=    -0.1186    -1.6667    -0.0000 Tot=     1.6709
 -----------------------------------------------------------------

              Electrostatic Properties (Atomic Units)

 -----------------------------------------------------------------
    Center     Electric         -------- Electric Field --------
               Potential          X             Y             Z
 -----------------------------------------------------------------
    1 Atom    -18.389061
    2 Atom     -1.079220
    3 Atom     -1.066847
    4 Atom     -1.066847
 -----------------------------------------------------------------
 1\1\GINC-N2207\SP\RMP2-FC\Aug-CC-pVTZ\H3N1\GDS001\09-Mar-2024\0\\# mp2
 /aug-cc-pVTZ Pop=ChelpG\\Title: R = 0.9121\\0,1\N\X,1,1.\H,1,0.9121,2,
 112.0482\H,1,1.0121,2,112.0482,3,-120.,0\H,1,1.0121,2,112.0482,3,120.,
 0\\Version=ES64L-G16RevA.03\State=1-A'\HF=-56.2120324\MP2=-56.450252\R
 MSD=3.249e-09\PG=CS [SG(H1N1),X(H2)]\\@


 You don't have to suffer to be a poet.
 Adolescence is enough suffering for anyone.
                             -- John Ciardi
 Job cpu time:       0 days  0 hours  1 minutes 16.0 seconds.
 Elapsed time:       0 days  0 hours  0 minutes  3.4 seconds.
 File lengths (MBytes):  RWF=     72 Int=      0 D2E=      0 Chk=      8 Scr=      8
 Normal termination of Gaussian 16 at Sat Mar  9 10:58:25 2024.
 Initial command:
 /sw/contrib/gaussian/g16/A03/g16/l1.exe "/gscratch/scrubbed/gds001/Gau-16250.inp" -scrdir="/gscratch/scrubbed/gds001/"
 Entering Link 1 = /sw/contrib/gaussian/g16/A03/g16/l1.exe PID=     16609.
  
 Copyright (c) 1988,1990,1992,1993,1995,1998,2003,2009,2016,
            Gaussian, Inc.  All Rights Reserved.
  
 This is part of the Gaussian(R) 16 program.  It is based on
 the Gaussian(R) 09 system (copyright 2009, Gaussian, Inc.),
 the Gaussian(R) 03 system (copyright 2003, Gaussian, Inc.),
 the Gaussian(R) 98 system (copyright 1998, Gaussian, Inc.),
 the Gaussian(R) 94 system (copyright 1995, Gaussian, Inc.),
 the Gaussian 92(TM) system (copyright 1992, Gaussian, Inc.),
 the Gaussian 90(TM) system (copyright 1990, Gaussian, Inc.),
 the Gaussian 88(TM) system (copyright 1988, Gaussian, Inc.),
 the Gaussian 86(TM) system (copyright 1986, Carnegie Mellon
 University), and the Gaussian 82(TM) system (copyright 1983,
 Carnegie Mellon University). Gaussian is a federally registered
 trademark of Gaussian, Inc.
  
 This software contains proprietary and confidential information,
 including trade secrets, belonging to Gaussian, Inc.
  
 This software is provided under written license and may be
 used, copied, transmitted, or stored only in accord with that
 written license.
  
 The following legend is applicable only to US Government
 contracts under FAR:
  
                    RESTRICTED RIGHTS LEGEND
  
 Use, reproduction and disclosure by the US Government is
 subject to restrictions as set forth in subparagraphs (a)
 and (c) of the Commercial Computer Software - Restricted
 Rights clause in FAR 52.227-19.
  
 Gaussian, Inc.
 340 Quinnipiac St., Bldg. 40, Wallingford CT 06492
  
  
 ---------------------------------------------------------------
 Warning -- This program may not be used in any manner that
 competes with the business of Gaussian, Inc. or will provide
 assistance to any competitor of Gaussian, Inc.  The licensee
 of this program is prohibited from giving any competitor of
 Gaussian, Inc. access to this program.  By using this program,
 the user acknowledges that Gaussian, Inc. is engaged in the
 business of creating and licensing software in the field of
 computational chemistry and represents and warrants to the
 licensee that it is not a competitor of Gaussian, Inc. and that
 it will not use this program in any manner prohibited above.
 ---------------------------------------------------------------
  

 Cite this work as:
 Gaussian 16, Revision A.03,
 M. J. Frisch, G. W. Trucks, H. B. Schlegel, G. E. Scuseria, 
 M. A. Robb, J. R. Cheeseman, G. Scalmani, V. Barone, 
 G. A. Petersson, H. Nakatsuji, X. Li, M. Caricato, A. V. Marenich, 
 J. Bloino, B. G. Janesko, R. Gomperts, B. Mennucci, H. P. Hratchian, 
 J. V. Ortiz, A. F. Izmaylov, J. L. Sonnenberg, D. Williams-Young, 
 F. Ding, F. Lipparini, F. Egidi, J. Goings, B. Peng, A. Petrone, 
 T. Henderson, D. Ranasinghe, V. G. Zakrzewski, J. Gao, N. Rega, 
 G. Zheng, W. Liang, M. Hada, M. Ehara, K. Toyota, R. Fukuda, 
 J. Hasegawa, M. Ishida, T. Nakajima, Y. Honda, O. Kitao, H. Nakai, 
 T. Vreven, K. Throssell, J. A. Montgomery, Jr., J. E. Peralta, 
 F. Ogliaro, M. J. Bearpark, J. J. Heyd, E. N. Brothers, K. N. Kudin, 
 V. N. Staroverov, T. A. Keith, R. Kobayashi, J. Normand, 
 K. Raghavachari, A. P. Rendell, J. C. Burant, S. S. Iyengar, 
 J. Tomasi, M. Cossi, J. M. Millam, M. Klene, C. Adamo, R. Cammi, 
 J. W. Ochterski, R. L. Martin, K. Morokuma, O. Farkas, 
 J. B. Foresman, and D. J. Fox, Gaussian, Inc., Wallingford CT, 2016.
 
 ******************************************
 Gaussian 16:  ES64L-G16RevA.03 25-Dec-2016
                 9-Mar-2024 
 ******************************************
 %nprocshared=28
 Will use up to   28 processors via shared memory.
 %mem=41GB
 ----------------------------
 # mp2/aug-cc-pVTZ Pop=ChelpG
 ----------------------------
 1/38=1,172=1/1;
 2/12=2,17=6,18=5,40=1/2;
 3/5=16,6=1,7=10,11=9,25=1,30=1/1,2,3;
 4//1;
 5/5=2,38=5/2;
 8/10=1/1;
 9/16=-3/6;
 6/7=2,8=2,9=2,10=2,15=8,20=3/1,2;
 99/5=1,9=1/99;
 -----------------
 Title: R = 0.9221
 -----------------
 Symbolic Z-matrix:
 Charge =  0 Multiplicity = 1
 N
 X                    1     1. 
 H                    1    R1       2    A1
 H                    1    R2       2    A2       3    -D1      0
 H                    1    R2       2    A2       3    D1       0
       Variables:
  R2                    1.0121                   
  A1                  112.0482                   
  A2                  112.0482                   
  D1                  120.                       
  R1                    0.9221                   
 
                          Input orientation:                          
 ---------------------------------------------------------------------
 Center     Atomic      Atomic             Coordinates (Angstroms)
 Number     Number       Type             X           Y           Z
 ---------------------------------------------------------------------
      1          7           0        0.000000    0.000000    0.000000
      2          1           0        0.854665    0.000000   -0.346144
      3          1           0       -0.469042    0.812404   -0.379929
      4          1           0       -0.469042   -0.812404   -0.379929
 ---------------------------------------------------------------------
                    Distance matrix (angstroms):
                    1          2          3          4
     1  N    0.000000
     2  H    0.922100   0.000000
     3  H    1.012100   1.553494   0.000000
     4  H    1.012100   1.553494   1.624808   0.000000
 Stoichiometry    H3N
 Framework group  CS[SG(HN),X(H2)]
 Deg. of freedom     4
 Full point group                 CS      NOp   2
 Largest Abelian subgroup         CS      NOp   2
 Largest concise Abelian subgroup CS      NOp   2
                         Standard orientation:                         
 ---------------------------------------------------------------------
 Center     Atomic      Atomic             Coordinates (Angstroms)
 Number     Number       Type             X           Y           Z
 ---------------------------------------------------------------------
      1          7           0        0.000000    0.110914   -0.000000
      2          1           0       -0.878278   -0.169970   -0.000000
      3          1           0        0.439139   -0.303215    0.812404
      4          1           0        0.439139   -0.303215   -0.812404
 ---------------------------------------------------------------------
 Rotational constants (GHZ):         332.9398606         303.4565934         201.0913721
 Standard basis: Aug-CC-pVTZ (5D, 7F)
 There are    80 symmetry adapted cartesian basis functions of A'  symmetry.
 There are    50 symmetry adapted cartesian basis functions of A"  symmetry.
 There are    69 symmetry adapted basis functions of A'  symmetry.
 There are    46 symmetry adapted basis functions of A"  symmetry.
   115 basis functions,   153 primitive gaussians,   130 cartesian basis functions
     5 alpha electrons        5 beta electrons
       nuclear repulsion energy        12.3440484366 Hartrees.
 NAtoms=    4 NActive=    4 NUniq=    3 SFac= 1.78D+00 NAtFMM=   60 NAOKFM=F Big=F
 Integral buffers will be    131072 words long.
 Raffenetti 1 integral format.
 Two-electron integral symmetry is turned on.
 One-electron integrals computed using PRISM.
 NBasis=   115 RedAO= T EigKep=  2.50D-04  NBF=    69    46
 NBsUse=   115 1.00D-06 EigRej= -1.00D+00 NBFU=    69    46
 ExpMin= 2.53D-02 ExpMax= 1.14D+04 ExpMxC= 3.89D+02 IAcc=3 IRadAn=         5 AccDes= 0.00D+00
 Harris functional with IExCor=  205 and IRadAn=       5 diagonalized for initial guess.
 HarFok:  IExCor=  205 AccDes= 0.00D+00 IRadAn=         5 IDoV= 1 UseB2=F ITyADJ=14
 ICtDFT=  3500011 ScaDFX=  1.000000  1.000000  1.000000  1.000000
 FoFCou: FMM=F IPFlag=           0 FMFlag=      100000 FMFlg1=           0
         NFxFlg=           0 DoJE=T BraDBF=F KetDBF=T FulRan=T
         wScrn=  0.000000 ICntrl=       500 IOpCl=  0 I1Cent=   200000004 NGrid=           0
         NMat0=    1 NMatS0=      1 NMatT0=    0 NMatD0=    1 NMtDS0=    0 NMtDT0=    0
 Petite list used in FoFCou.
 Initial guess orbital symmetries:
       Occupied  (A') (A') (A') (A") (A')
       Virtual   (A') (A") (A') (A') (A') (A") (A') (A') (A") (A")
                 (A') (A') (A') (A") (A') (A") (A") (A') (A') (A')
                 (A") (A') (A') (A") (A') (A") (A') (A') (A') (A")
                 (A') (A") (A") (A') (A') (A") (A') (A") (A') (A")
                 (A") (A') (A') (A") (A') (A') (A') (A") (A') (A")
                 (A') (A") (A') (A") (A') (A') (A") (A') (A") (A')
                 (A') (A") (A') (A") (A') (A") (A') (A') (A") (A')
                 (A') (A") (A') (A") (A") (A') (A") (A') (A") (A")
                 (A') (A') (A') (A") (A') (A') (A") (A') (A") (A")
                 (A') (A') (A') (A") (A') (A") (A') (A') (A') (A")
                 (A') (A") (A") (A') (A') (A") (A') (A") (A') (A')
 The electronic state of the initial guess is 1-A'.
 Keep R1 ints in memory in symmetry-blocked form, NReq=35942633.
 Requested convergence on RMS density matrix=1.00D-08 within 128 cycles.
 Requested convergence on MAX density matrix=1.00D-06.
 Requested convergence on             energy=1.00D-06.
 No special actions if energy rises.
 SCF Done:  E(RHF) =  -56.2139823540     A.U. after   10 cycles
            NFock= 10  Conv=0.32D-08     -V/T= 1.9983
 ExpMin= 2.53D-02 ExpMax= 1.14D+04 ExpMxC= 3.89D+02 IAcc=3 IRadAn=         5 AccDes= 0.00D+00
 HarFok:  IExCor=  205 AccDes= 0.00D+00 IRadAn=         5 IDoV=-2 UseB2=F ITyADJ=14
 ICtDFT= 12500011 ScaDFX=  1.000000  1.000000  1.000000  1.000000
 Range of M.O.s used for correlation:     2   115
 NBasis=   115 NAE=     5 NBE=     5 NFC=     1 NFV=     0
 NROrb=    114 NOA=     4 NOB=     4 NVA=   110 NVB=   110

 **** Warning!!: The largest alpha MO coefficient is  0.21525377D+02

 Fully in-core method, ICMem=    83850841.
 JobTyp=1 Pass  1 fully in-core, NPsUse= 28.
 Spin components of T(2) and E(2):
     alpha-alpha T2 =       0.7662286872D-02 E2=     -0.2640158213D-01
     alpha-beta  T2 =       0.4930217959D-01 E2=     -0.1856073484D+00
     beta-beta   T2 =       0.7662286872D-02 E2=     -0.2640158213D-01
 ANorm=    0.1031807518D+01
 E2 =    -0.2384105127D+00 EUMP2 =    -0.56452392866690D+02

 **********************************************************************

            Population analysis using the SCF density.

 **********************************************************************

 Orbital symmetries:
       Occupied  (A') (A') (A') (A") (A')
       Virtual   (A') (A') (A") (A') (A') (A') (A") (A") (A') (A')
                 (A") (A') (A") (A') (A") (A') (A') (A") (A') (A")
                 (A') (A') (A') (A") (A') (A") (A') (A') (A') (A")
                 (A') (A") (A") (A') (A') (A") (A') (A") (A') (A")
                 (A") (A') (A') (A') (A") (A') (A') (A") (A') (A")
                 (A') (A") (A') (A") (A') (A') (A") (A') (A") (A')
                 (A') (A") (A') (A") (A") (A') (A') (A') (A") (A')
                 (A") (A') (A') (A") (A') (A") (A") (A') (A") (A')
                 (A") (A') (A') (A") (A') (A') (A") (A') (A") (A')
                 (A") (A") (A') (A') (A') (A") (A') (A') (A') (A")
                 (A') (A") (A") (A') (A') (A") (A') (A") (A') (A')
 The electronic state is 1-A'.
 Alpha  occ. eigenvalues --  -15.53104  -1.16081  -0.65424  -0.62924  -0.43089
 Alpha virt. eigenvalues --    0.02976   0.04857   0.04860   0.11704   0.15343
 Alpha virt. eigenvalues --    0.16204   0.16227   0.22135   0.22606   0.23612
 Alpha virt. eigenvalues --    0.23663   0.25707   0.35711   0.35850   0.37092
 Alpha virt. eigenvalues --    0.37190   0.43230   0.45974   0.46552   0.48768
 Alpha virt. eigenvalues --    0.49787   0.56304   0.60447   0.60536   0.75387
 Alpha virt. eigenvalues --    0.78735   0.80094   0.81844   0.89244   0.90600
 Alpha virt. eigenvalues --    0.91625   0.91717   0.97802   0.99250   1.03268
 Alpha virt. eigenvalues --    1.03641   1.06437   1.08673   1.10661   1.10825
 Alpha virt. eigenvalues --    1.14480   1.14906   1.19640   1.22371   1.22632
 Alpha virt. eigenvalues --    1.31251   1.36156   1.36663   1.61720   1.75979
 Alpha virt. eigenvalues --    1.79293   1.80429   1.86221   1.86704   1.88562
 Alpha virt. eigenvalues --    2.00937   2.03785   2.05013   2.05584   2.08213
 Alpha virt. eigenvalues --    2.26825   2.34683   2.38341   2.39068   2.45471
 Alpha virt. eigenvalues --    2.45616   2.53506   3.40108   3.56871   3.59557
 Alpha virt. eigenvalues --    3.97317   3.99587   4.07287   4.15269   4.16970
 Alpha virt. eigenvalues --    4.23325   4.27267   4.29261   4.29991   4.35498
 Alpha virt. eigenvalues --    4.36712   4.38631   4.47626   4.55525   4.58429
 Alpha virt. eigenvalues --    4.72663   4.79970   4.82203   4.94732   5.02982
 Alpha virt. eigenvalues --    5.04582   5.08156   5.08732   5.15258   5.33217
 Alpha virt. eigenvalues --    5.64995   5.66244   5.81611   5.96172   6.04510
 Alpha virt. eigenvalues --    6.17012   6.40238   6.54525   6.57257   6.73780
 Alpha virt. eigenvalues --    7.04274   7.24129   7.70050   7.83901  18.29086
          Condensed to atoms (all electrons):
               1          2          3          4
     1  N    6.515394   0.362172   0.342536   0.342536
     2  H    0.362172   0.490855  -0.005334  -0.005334
     3  H    0.342536  -0.005334   0.457907   0.002391
     4  H    0.342536  -0.005334   0.002391   0.457907
 Mulliken charges:
               1
     1  N   -0.562639
     2  H    0.157641
     3  H    0.202499
     4  H    0.202499
 Sum of Mulliken charges =  -0.00000
 Mulliken charges with hydrogens summed into heavy atoms:
               1
     1  N   -0.000000
 Electronic spatial extent (au):  <R**2>=             25.9540
 Charge=             -0.0000 electrons
 Dipole moment (field-independent basis, Debye):
    X=             -0.1018    Y=             -1.6169    Z=              0.0000  Tot=              1.6201
 Quadrupole moment (field-independent basis, Debye-Ang):
   XX=             -6.3133   YY=             -9.1342   ZZ=             -6.1280
   XY=             -0.2547   XZ=             -0.0000   YZ=              0.0000
 Traceless Quadrupole moment (field-independent basis, Debye-Ang):
   XX=              0.8785   YY=             -1.9424   ZZ=              1.0639
   XY=             -0.2547   XZ=             -0.0000   YZ=              0.0000
 Octapole moment (field-independent basis, Debye-Ang**2):
  XXX=             -1.0602  YYY=             -1.4489  ZZZ=             -0.0000  XYY=             -0.0198
  XXY=             -0.7770  XXZ=             -0.0000  XZZ=              0.8126  YZZ=             -1.0083
  YYZ=             -0.0000  XYZ=              0.0000
 Hexadecapole moment (field-independent basis, Debye-Ang**3):
 XXXX=             -9.3072 YYYY=            -11.9720 ZZZZ=             -9.8767 XXXY=              0.2682
 XXXZ=             -0.0000 YYYX=              0.1000 YYYZ=             -0.0000 ZZZX=              0.0000
 ZZZY=              0.0000 XXYY=             -3.6986 XXZZ=             -3.1923 YYZZ=             -3.7358
 XXYZ=              0.0000 YYXZ=             -0.0000 ZZXY=             -0.3443
 N-N= 1.234404843655D+01 E-N=-1.566134026903D+02  KE= 5.630979109504D+01
 Symmetry A'   KE= 5.370036030983D+01
 Symmetry A"   KE= 2.609430785206D+00
 Breneman (CHELPG) radii used.
 Generate Potential Derived Charges using the Breneman model, NDens= 1.
 Grid spacing= 0.300 Box extension= 2.800
 NStep X,Y,Z=   25     22     26   Total possible points=       14300
 Number of Points to Fit=    4626

 **********************************************************************

            Electrostatic Properties Using The SCF Density

 **********************************************************************

       Atomic Center    1 is at   0.000000  0.110914 -0.000000
       Atomic Center    2 is at  -0.878278 -0.169970 -0.000000
       Atomic Center    3 is at   0.439139 -0.303215  0.812404
       Atomic Center    4 is at   0.439139 -0.303215 -0.812404
    4626 points will be used for fitting atomic charges
 Fitting point charges to electrostatic potential
 Charges from ESP fit, RMS=   0.00380 RRMS=   0.22561:
 ESP charges:
               1
     1  N   -0.944692
     2  H    0.331824
     3  H    0.306434
     4  H    0.306434
 Sum of ESP charges =   0.00000
 ESP charges with hydrogens summed into heavy atoms:
               1
     1  N    0.000000
 Charge=   0.00000 Dipole=    -0.1071    -1.6668    -0.0000 Tot=     1.6702
 -----------------------------------------------------------------

              Electrostatic Properties (Atomic Units)

 -----------------------------------------------------------------
    Center     Electric         -------- Electric Field --------
               Potential          X             Y             Z
 -----------------------------------------------------------------
    1 Atom    -18.387570
    2 Atom     -1.078621
    3 Atom     -1.066846
    4 Atom     -1.066846
 -----------------------------------------------------------------
 1\1\GINC-N2207\SP\RMP2-FC\Aug-CC-pVTZ\H3N1\GDS001\09-Mar-2024\0\\# mp2
 /aug-cc-pVTZ Pop=ChelpG\\Title: R = 0.9221\\0,1\N\X,1,1.\H,1,0.9221,2,
 112.0482\H,1,1.0121,2,112.0482,3,-120.,0\H,1,1.0121,2,112.0482,3,120.,
 0\\Version=ES64L-G16RevA.03\State=1-A'\HF=-56.2139824\MP2=-56.4523929\
 RMSD=3.197e-09\PG=CS [SG(H1N1),X(H2)]\\@


 WHEN IT COMES TO CASH FLOW, IT SEEMS LIKE THE TIDE IS ALWAYS GOING OUT.
 Job cpu time:       0 days  0 hours  1 minutes 12.8 seconds.
 Elapsed time:       0 days  0 hours  0 minutes  3.1 seconds.
 File lengths (MBytes):  RWF=     72 Int=      0 D2E=      0 Chk=      8 Scr=      8
 Normal termination of Gaussian 16 at Sat Mar  9 10:58:28 2024.
 Initial command:
 /sw/contrib/gaussian/g16/A03/g16/l1.exe "/gscratch/scrubbed/gds001/Gau-16250.inp" -scrdir="/gscratch/scrubbed/gds001/"
 Entering Link 1 = /sw/contrib/gaussian/g16/A03/g16/l1.exe PID=     16967.
  
 Copyright (c) 1988,1990,1992,1993,1995,1998,2003,2009,2016,
            Gaussian, Inc.  All Rights Reserved.
  
 This is part of the Gaussian(R) 16 program.  It is based on
 the Gaussian(R) 09 system (copyright 2009, Gaussian, Inc.),
 the Gaussian(R) 03 system (copyright 2003, Gaussian, Inc.),
 the Gaussian(R) 98 system (copyright 1998, Gaussian, Inc.),
 the Gaussian(R) 94 system (copyright 1995, Gaussian, Inc.),
 the Gaussian 92(TM) system (copyright 1992, Gaussian, Inc.),
 the Gaussian 90(TM) system (copyright 1990, Gaussian, Inc.),
 the Gaussian 88(TM) system (copyright 1988, Gaussian, Inc.),
 the Gaussian 86(TM) system (copyright 1986, Carnegie Mellon
 University), and the Gaussian 82(TM) system (copyright 1983,
 Carnegie Mellon University). Gaussian is a federally registered
 trademark of Gaussian, Inc.
  
 This software contains proprietary and confidential information,
 including trade secrets, belonging to Gaussian, Inc.
  
 This software is provided under written license and may be
 used, copied, transmitted, or stored only in accord with that
 written license.
  
 The following legend is applicable only to US Government
 contracts under FAR:
  
                    RESTRICTED RIGHTS LEGEND
  
 Use, reproduction and disclosure by the US Government is
 subject to restrictions as set forth in subparagraphs (a)
 and (c) of the Commercial Computer Software - Restricted
 Rights clause in FAR 52.227-19.
  
 Gaussian, Inc.
 340 Quinnipiac St., Bldg. 40, Wallingford CT 06492
  
  
 ---------------------------------------------------------------
 Warning -- This program may not be used in any manner that
 competes with the business of Gaussian, Inc. or will provide
 assistance to any competitor of Gaussian, Inc.  The licensee
 of this program is prohibited from giving any competitor of
 Gaussian, Inc. access to this program.  By using this program,
 the user acknowledges that Gaussian, Inc. is engaged in the
 business of creating and licensing software in the field of
 computational chemistry and represents and warrants to the
 licensee that it is not a competitor of Gaussian, Inc. and that
 it will not use this program in any manner prohibited above.
 ---------------------------------------------------------------
  

 Cite this work as:
 Gaussian 16, Revision A.03,
 M. J. Frisch, G. W. Trucks, H. B. Schlegel, G. E. Scuseria, 
 M. A. Robb, J. R. Cheeseman, G. Scalmani, V. Barone, 
 G. A. Petersson, H. Nakatsuji, X. Li, M. Caricato, A. V. Marenich, 
 J. Bloino, B. G. Janesko, R. Gomperts, B. Mennucci, H. P. Hratchian, 
 J. V. Ortiz, A. F. Izmaylov, J. L. Sonnenberg, D. Williams-Young, 
 F. Ding, F. Lipparini, F. Egidi, J. Goings, B. Peng, A. Petrone, 
 T. Henderson, D. Ranasinghe, V. G. Zakrzewski, J. Gao, N. Rega, 
 G. Zheng, W. Liang, M. Hada, M. Ehara, K. Toyota, R. Fukuda, 
 J. Hasegawa, M. Ishida, T. Nakajima, Y. Honda, O. Kitao, H. Nakai, 
 T. Vreven, K. Throssell, J. A. Montgomery, Jr., J. E. Peralta, 
 F. Ogliaro, M. J. Bearpark, J. J. Heyd, E. N. Brothers, K. N. Kudin, 
 V. N. Staroverov, T. A. Keith, R. Kobayashi, J. Normand, 
 K. Raghavachari, A. P. Rendell, J. C. Burant, S. S. Iyengar, 
 J. Tomasi, M. Cossi, J. M. Millam, M. Klene, C. Adamo, R. Cammi, 
 J. W. Ochterski, R. L. Martin, K. Morokuma, O. Farkas, 
 J. B. Foresman, and D. J. Fox, Gaussian, Inc., Wallingford CT, 2016.
 
 ******************************************
 Gaussian 16:  ES64L-G16RevA.03 25-Dec-2016
                 9-Mar-2024 
 ******************************************
 %nprocshared=28
 Will use up to   28 processors via shared memory.
 %mem=41GB
 ----------------------------
 # mp2/aug-cc-pVTZ Pop=ChelpG
 ----------------------------
 1/38=1,172=1/1;
 2/12=2,17=6,18=5,40=1/2;
 3/5=16,6=1,7=10,11=9,25=1,30=1/1,2,3;
 4//1;
 5/5=2,38=5/2;
 8/10=1/1;
 9/16=-3/6;
 6/7=2,8=2,9=2,10=2,15=8,20=3/1,2;
 99/5=1,9=1/99;
 -----------------
 Title: R = 0.9321
 -----------------
 Symbolic Z-matrix:
 Charge =  0 Multiplicity = 1
 N
 X                    1     1. 
 H                    1    R1       2    A1
 H                    1    R2       2    A2       3    -D1      0
 H                    1    R2       2    A2       3    D1       0
       Variables:
  R2                    1.0121                   
  A1                  112.0482                   
  A2                  112.0482                   
  D1                  120.                       
  R1                    0.9321                   
 
                          Input orientation:                          
 ---------------------------------------------------------------------
 Center     Atomic      Atomic             Coordinates (Angstroms)
 Number     Number       Type             X           Y           Z
 ---------------------------------------------------------------------
      1          7           0        0.000000    0.000000    0.000000
      2          1           0        0.863934    0.000000   -0.349898
      3          1           0       -0.469042    0.812404   -0.379929
      4          1           0       -0.469042   -0.812404   -0.379929
 ---------------------------------------------------------------------
                    Distance matrix (angstroms):
                    1          2          3          4
     1  N    0.000000
     2  H    0.932100   0.000000
     3  H    1.012100   1.561322   0.000000
     4  H    1.012100   1.561322   1.624808   0.000000
 Stoichiometry    H3N
 Framework group  CS[SG(HN),X(H2)]
 Deg. of freedom     4
 Full point group                 CS      NOp   2
 Largest Abelian subgroup         CS      NOp   2
 Largest concise Abelian subgroup CS      NOp   2
                         Standard orientation:                         
 ---------------------------------------------------------------------
 Center     Atomic      Atomic             Coordinates (Angstroms)
 Number     Number       Type             X           Y           Z
 ---------------------------------------------------------------------
      1          7           0        0.000000    0.111223    0.000000
      2          1           0       -0.885339   -0.180300    0.000000
      3          1           0        0.442669   -0.299130    0.812404
      4          1           0        0.442669   -0.299130   -0.812404
 ---------------------------------------------------------------------
 Rotational constants (GHZ):         328.9784902         302.9258196         199.8698148
 Standard basis: Aug-CC-pVTZ (5D, 7F)
 There are    80 symmetry adapted cartesian basis functions of A'  symmetry.
 There are    50 symmetry adapted cartesian basis functions of A"  symmetry.
 There are    69 symmetry adapted basis functions of A'  symmetry.
 There are    46 symmetry adapted basis functions of A"  symmetry.
   115 basis functions,   153 primitive gaussians,   130 cartesian basis functions
     5 alpha electrons        5 beta electrons
       nuclear repulsion energy        12.2975343561 Hartrees.
 NAtoms=    4 NActive=    4 NUniq=    3 SFac= 1.78D+00 NAtFMM=   60 NAOKFM=F Big=F
 Integral buffers will be    131072 words long.
 Raffenetti 1 integral format.
 Two-electron integral symmetry is turned on.
 One-electron integrals computed using PRISM.
 NBasis=   115 RedAO= T EigKep=  2.53D-04  NBF=    69    46
 NBsUse=   115 1.00D-06 EigRej= -1.00D+00 NBFU=    69    46
 ExpMin= 2.53D-02 ExpMax= 1.14D+04 ExpMxC= 3.89D+02 IAcc=3 IRadAn=         5 AccDes= 0.00D+00
 Harris functional with IExCor=  205 and IRadAn=       5 diagonalized for initial guess.
 HarFok:  IExCor=  205 AccDes= 0.00D+00 IRadAn=         5 IDoV= 1 UseB2=F ITyADJ=14
 ICtDFT=  3500011 ScaDFX=  1.000000  1.000000  1.000000  1.000000
 FoFCou: FMM=F IPFlag=           0 FMFlag=      100000 FMFlg1=           0
         NFxFlg=           0 DoJE=T BraDBF=F KetDBF=T FulRan=T
         wScrn=  0.000000 ICntrl=       500 IOpCl=  0 I1Cent=   200000004 NGrid=           0
         NMat0=    1 NMatS0=      1 NMatT0=    0 NMatD0=    1 NMtDS0=    0 NMtDT0=    0
 Petite list used in FoFCou.
 Initial guess orbital symmetries:
       Occupied  (A') (A') (A') (A") (A')
       Virtual   (A') (A") (A') (A') (A') (A") (A') (A') (A") (A")
                 (A') (A') (A') (A") (A') (A") (A") (A') (A') (A')
                 (A") (A') (A') (A") (A') (A") (A') (A') (A') (A")
                 (A') (A") (A") (A') (A') (A") (A') (A") (A') (A")
                 (A") (A') (A') (A") (A') (A') (A') (A") (A') (A")
                 (A') (A") (A') (A") (A') (A') (A") (A') (A") (A')
                 (A') (A') (A") (A") (A') (A") (A') (A') (A") (A')
                 (A') (A") (A') (A") (A") (A') (A") (A') (A") (A")
                 (A') (A') (A') (A") (A') (A') (A") (A') (A") (A")
                 (A') (A') (A') (A") (A') (A") (A') (A') (A') (A")
                 (A') (A") (A") (A') (A') (A") (A') (A") (A') (A')
 The electronic state of the initial guess is 1-A'.
 Keep R1 ints in memory in symmetry-blocked form, NReq=35942633.
 Requested convergence on RMS density matrix=1.00D-08 within 128 cycles.
 Requested convergence on MAX density matrix=1.00D-06.
 Requested convergence on             energy=1.00D-06.
 No special actions if energy rises.
 SCF Done:  E(RHF) =  -56.2156417568     A.U. after   10 cycles
            NFock= 10  Conv=0.31D-08     -V/T= 1.9987
 ExpMin= 2.53D-02 ExpMax= 1.14D+04 ExpMxC= 3.89D+02 IAcc=3 IRadAn=         5 AccDes= 0.00D+00
 HarFok:  IExCor=  205 AccDes= 0.00D+00 IRadAn=         5 IDoV=-2 UseB2=F ITyADJ=14
 ICtDFT= 12500011 ScaDFX=  1.000000  1.000000  1.000000  1.000000
 Range of M.O.s used for correlation:     2   115
 NBasis=   115 NAE=     5 NBE=     5 NFC=     1 NFV=     0
 NROrb=    114 NOA=     4 NOB=     4 NVA=   110 NVB=   110

 **** Warning!!: The largest alpha MO coefficient is  0.21104506D+02

 Fully in-core method, ICMem=    83850841.
 JobTyp=1 Pass  1 fully in-core, NPsUse= 28.
 Spin components of T(2) and E(2):
     alpha-alpha T2 =       0.7688990555D-02 E2=     -0.2641911253D-01
     alpha-beta  T2 =       0.4948847180D-01 E2=     -0.1857653716D+00
     beta-beta   T2 =       0.7688990555D-02 E2=     -0.2641911253D-01
 ANorm=    0.1031923666D+01
 E2 =    -0.2386035967D+00 EUMP2 =    -0.56454245353486D+02

 **********************************************************************

            Population analysis using the SCF density.

 **********************************************************************

 Orbital symmetries:
       Occupied  (A') (A') (A') (A") (A')
       Virtual   (A') (A') (A") (A') (A') (A') (A") (A") (A') (A')
                 (A") (A') (A") (A') (A") (A') (A') (A") (A') (A")
                 (A') (A') (A') (A") (A') (A") (A') (A') (A') (A")
                 (A') (A") (A") (A') (A') (A") (A') (A") (A') (A")
                 (A") (A') (A') (A') (A") (A') (A') (A") (A') (A")
                 (A') (A") (A') (A") (A') (A') (A") (A') (A") (A')
                 (A') (A") (A') (A") (A") (A') (A') (A') (A") (A')
                 (A") (A') (A') (A") (A') (A") (A") (A') (A") (A')
                 (A") (A') (A') (A") (A') (A') (A") (A') (A") (A')
                 (A") (A") (A') (A') (A') (A") (A') (A') (A') (A")
                 (A') (A") (A") (A') (A') (A") (A') (A") (A') (A')
 The electronic state is 1-A'.
 Alpha  occ. eigenvalues --  -15.53226  -1.15851  -0.65140  -0.62917  -0.43070
 Alpha virt. eigenvalues --    0.02974   0.04858   0.04861   0.11714   0.15335
 Alpha virt. eigenvalues --    0.16206   0.16228   0.22137   0.22562   0.23602
 Alpha virt. eigenvalues --    0.23649   0.25679   0.35698   0.35850   0.37088
 Alpha virt. eigenvalues --    0.37177   0.43201   0.45988   0.46535   0.48757
 Alpha virt. eigenvalues --    0.49612   0.56299   0.60421   0.60499   0.75356
 Alpha virt. eigenvalues --    0.78725   0.79967   0.81741   0.89161   0.90565
 Alpha virt. eigenvalues --    0.91589   0.91670   0.97836   0.99136   1.03301
 Alpha virt. eigenvalues --    1.03638   1.06069   1.08623   1.10588   1.10770
 Alpha virt. eigenvalues --    1.14457   1.14840   1.19502   1.22312   1.22552
 Alpha virt. eigenvalues --    1.31333   1.36163   1.36619   1.61687   1.75982
 Alpha virt. eigenvalues --    1.78943   1.79971   1.86246   1.86674   1.88322
 Alpha virt. eigenvalues --    2.00873   2.03824   2.04974   2.05503   2.07944
 Alpha virt. eigenvalues --    2.26903   2.34677   2.38009   2.38915   2.45220
 Alpha virt. eigenvalues --    2.45341   2.52603   3.40009   3.56774   3.59257
 Alpha virt. eigenvalues --    3.97281   3.99348   4.06889   4.15205   4.16592
 Alpha virt. eigenvalues --    4.23215   4.26717   4.28987   4.29459   4.35146
 Alpha virt. eigenvalues --    4.36573   4.38307   4.47610   4.55385   4.58263
 Alpha virt. eigenvalues --    4.72364   4.79309   4.81372   4.94704   5.01950
 Alpha virt. eigenvalues --    5.04325   5.07416   5.08384   5.14076   5.32177
 Alpha virt. eigenvalues --    5.65349   5.66438   5.80547   5.95385   6.03216
 Alpha virt. eigenvalues --    6.15769   6.39307   6.53001   6.54093   6.72584
 Alpha virt. eigenvalues --    7.02889   7.19723   7.69814   7.82087  18.16927
          Condensed to atoms (all electrons):
               1          2          3          4
     1  N    6.524201   0.358750   0.341944   0.341944
     2  H    0.358750   0.487606  -0.004645  -0.004645
     3  H    0.341944  -0.004645   0.458389   0.002359
     4  H    0.341944  -0.004645   0.002359   0.458389
 Mulliken charges:
               1
     1  N   -0.566839
     2  H    0.162933
     3  H    0.201953
     4  H    0.201953
 Sum of Mulliken charges =   0.00000
 Mulliken charges with hydrogens summed into heavy atoms:
               1
     1  N    0.000000
 Electronic spatial extent (au):  <R**2>=             26.0294
 Charge=              0.0000 electrons
 Dipole moment (field-independent basis, Debye):
    X=             -0.0907    Y=             -1.6167    Z=             -0.0000  Tot=              1.6192
 Quadrupole moment (field-independent basis, Debye-Ang):
   XX=             -6.3017   YY=             -9.1508   ZZ=             -6.1387
   XY=             -0.2275   XZ=             -0.0000   YZ=              0.0000
 Traceless Quadrupole moment (field-independent basis, Debye-Ang):
   XX=              0.8954   YY=             -1.9538   ZZ=              1.0584
   XY=             -0.2275   XZ=             -0.0000   YZ=              0.0000
 Octapole moment (field-independent basis, Debye-Ang**2):
  XXX=             -1.0515  YYY=             -1.4420  ZZZ=             -0.0000  XYY=             -0.0163
  XXY=             -0.7904  XXZ=              0.0000  XZZ=              0.8305  YZZ=             -0.9975
  YYZ=             -0.0000  XYZ=             -0.0000
 Hexadecapole moment (field-independent basis, Debye-Ang**3):
 XXXX=             -9.3799 YYYY=            -11.9958 ZZZZ=             -9.8887 XXXY=              0.2792
 XXXZ=             -0.0000 YYYX=              0.0924 YYYZ=             -0.0000 ZZZX=             -0.0000
 ZZZY=             -0.0000 XXYY=             -3.7173 XXZZ=             -3.2065 YYZZ=             -3.7486
 XXYZ=             -0.0000 YYXZ=             -0.0000 ZZXY=             -0.3449
 N-N= 1.229753435611D+01 E-N=-1.565093386052D+02  KE= 5.628707063203D+01
 Symmetry A'   KE= 5.367725996688D+01
 Symmetry A"   KE= 2.609810665151D+00
 Breneman (CHELPG) radii used.
 Generate Potential Derived Charges using the Breneman model, NDens= 1.
 Grid spacing= 0.300 Box extension= 2.800
 NStep X,Y,Z=   25     22     26   Total possible points=       14300
 Number of Points to Fit=    4626

 **********************************************************************

            Electrostatic Properties Using The SCF Density

 **********************************************************************

       Atomic Center    1 is at   0.000000  0.111223  0.000000
       Atomic Center    2 is at  -0.885339 -0.180300  0.000000
       Atomic Center    3 is at   0.442669 -0.299130  0.812404
       Atomic Center    4 is at   0.442669 -0.299130 -0.812404
    4626 points will be used for fitting atomic charges
 Fitting point charges to electrostatic potential
 Charges from ESP fit, RMS=   0.00381 RRMS=   0.22656:
 ESP charges:
               1
     1  N   -0.941122
     2  H    0.328445
     3  H    0.306339
     4  H    0.306339
 Sum of ESP charges =  -0.00000
 ESP charges with hydrogens summed into heavy atoms:
               1
     1  N   -0.000000
 Charge=  -0.00000 Dipole=    -0.0940    -1.6675    -0.0000 Tot=     1.6701
 -----------------------------------------------------------------

              Electrostatic Properties (Atomic Units)

 -----------------------------------------------------------------
    Center     Electric         -------- Electric Field --------
               Potential          X             Y             Z
 -----------------------------------------------------------------
    1 Atom    -18.386107
    2 Atom     -1.077841
    3 Atom     -1.066840
    4 Atom     -1.066840
 -----------------------------------------------------------------
 1\1\GINC-N2207\SP\RMP2-FC\Aug-CC-pVTZ\H3N1\GDS001\09-Mar-2024\0\\# mp2
 /aug-cc-pVTZ Pop=ChelpG\\Title: R = 0.9321\\0,1\N\X,1,1.\H,1,0.9321,2,
 112.0482\H,1,1.0121,2,112.0482,3,-120.,0\H,1,1.0121,2,112.0482,3,120.,
 0\\Version=ES64L-G16RevA.03\State=1-A'\HF=-56.2156418\MP2=-56.4542454\
 RMSD=3.145e-09\PG=CS [SG(H1N1),X(H2)]\\@


      HUMANKIND PERIODICALLY GOES THROUGH A SPEEDUP OF ITS AFFAIRS, 
      THEREBY EXPERIENCING THE RACE BETWEEN THE RENEWABLE VITALITY
      OF THE LIVING, AND THE BECKONING VITIATION OF DECADENCE.
      IN THIS PERIODIC RACE, ANY PAUSE BECOMES A LUXURY.
      ONLY THEN CAN ONE REFLECT THAT ALL IS PERMITTED;
      ALL IS POSSIBLE.

                              -- THE APOCRYPHA OF MUAD'DIB
                                 CHILDREN OF DUNE, BY FRANK HERBERT
 Job cpu time:       0 days  0 hours  1 minutes 15.1 seconds.
 Elapsed time:       0 days  0 hours  0 minutes  3.1 seconds.
 File lengths (MBytes):  RWF=     72 Int=      0 D2E=      0 Chk=      8 Scr=      8
 Normal termination of Gaussian 16 at Sat Mar  9 10:58:31 2024.
 Initial command:
 /sw/contrib/gaussian/g16/A03/g16/l1.exe "/gscratch/scrubbed/gds001/Gau-16250.inp" -scrdir="/gscratch/scrubbed/gds001/"
 Entering Link 1 = /sw/contrib/gaussian/g16/A03/g16/l1.exe PID=     17393.
  
 Copyright (c) 1988,1990,1992,1993,1995,1998,2003,2009,2016,
            Gaussian, Inc.  All Rights Reserved.
  
 This is part of the Gaussian(R) 16 program.  It is based on
 the Gaussian(R) 09 system (copyright 2009, Gaussian, Inc.),
 the Gaussian(R) 03 system (copyright 2003, Gaussian, Inc.),
 the Gaussian(R) 98 system (copyright 1998, Gaussian, Inc.),
 the Gaussian(R) 94 system (copyright 1995, Gaussian, Inc.),
 the Gaussian 92(TM) system (copyright 1992, Gaussian, Inc.),
 the Gaussian 90(TM) system (copyright 1990, Gaussian, Inc.),
 the Gaussian 88(TM) system (copyright 1988, Gaussian, Inc.),
 the Gaussian 86(TM) system (copyright 1986, Carnegie Mellon
 University), and the Gaussian 82(TM) system (copyright 1983,
 Carnegie Mellon University). Gaussian is a federally registered
 trademark of Gaussian, Inc.
  
 This software contains proprietary and confidential information,
 including trade secrets, belonging to Gaussian, Inc.
  
 This software is provided under written license and may be
 used, copied, transmitted, or stored only in accord with that
 written license.
  
 The following legend is applicable only to US Government
 contracts under FAR:
  
                    RESTRICTED RIGHTS LEGEND
  
 Use, reproduction and disclosure by the US Government is
 subject to restrictions as set forth in subparagraphs (a)
 and (c) of the Commercial Computer Software - Restricted
 Rights clause in FAR 52.227-19.
  
 Gaussian, Inc.
 340 Quinnipiac St., Bldg. 40, Wallingford CT 06492
  
  
 ---------------------------------------------------------------
 Warning -- This program may not be used in any manner that
 competes with the business of Gaussian, Inc. or will provide
 assistance to any competitor of Gaussian, Inc.  The licensee
 of this program is prohibited from giving any competitor of
 Gaussian, Inc. access to this program.  By using this program,
 the user acknowledges that Gaussian, Inc. is engaged in the
 business of creating and licensing software in the field of
 computational chemistry and represents and warrants to the
 licensee that it is not a competitor of Gaussian, Inc. and that
 it will not use this program in any manner prohibited above.
 ---------------------------------------------------------------
  

 Cite this work as:
 Gaussian 16, Revision A.03,
 M. J. Frisch, G. W. Trucks, H. B. Schlegel, G. E. Scuseria, 
 M. A. Robb, J. R. Cheeseman, G. Scalmani, V. Barone, 
 G. A. Petersson, H. Nakatsuji, X. Li, M. Caricato, A. V. Marenich, 
 J. Bloino, B. G. Janesko, R. Gomperts, B. Mennucci, H. P. Hratchian, 
 J. V. Ortiz, A. F. Izmaylov, J. L. Sonnenberg, D. Williams-Young, 
 F. Ding, F. Lipparini, F. Egidi, J. Goings, B. Peng, A. Petrone, 
 T. Henderson, D. Ranasinghe, V. G. Zakrzewski, J. Gao, N. Rega, 
 G. Zheng, W. Liang, M. Hada, M. Ehara, K. Toyota, R. Fukuda, 
 J. Hasegawa, M. Ishida, T. Nakajima, Y. Honda, O. Kitao, H. Nakai, 
 T. Vreven, K. Throssell, J. A. Montgomery, Jr., J. E. Peralta, 
 F. Ogliaro, M. J. Bearpark, J. J. Heyd, E. N. Brothers, K. N. Kudin, 
 V. N. Staroverov, T. A. Keith, R. Kobayashi, J. Normand, 
 K. Raghavachari, A. P. Rendell, J. C. Burant, S. S. Iyengar, 
 J. Tomasi, M. Cossi, J. M. Millam, M. Klene, C. Adamo, R. Cammi, 
 J. W. Ochterski, R. L. Martin, K. Morokuma, O. Farkas, 
 J. B. Foresman, and D. J. Fox, Gaussian, Inc., Wallingford CT, 2016.
 
 ******************************************
 Gaussian 16:  ES64L-G16RevA.03 25-Dec-2016
                 9-Mar-2024 
 ******************************************
 %nprocshared=28
 Will use up to   28 processors via shared memory.
 %mem=41GB
 ----------------------------
 # mp2/aug-cc-pVTZ Pop=ChelpG
 ----------------------------
 1/38=1,172=1/1;
 2/12=2,17=6,18=5,40=1/2;
 3/5=16,6=1,7=10,11=9,25=1,30=1/1,2,3;
 4//1;
 5/5=2,38=5/2;
 8/10=1/1;
 9/16=-3/6;
 6/7=2,8=2,9=2,10=2,15=8,20=3/1,2;
 99/5=1,9=1/99;
 -----------------
 Title: R = 0.9421
 -----------------
 Symbolic Z-matrix:
 Charge =  0 Multiplicity = 1
 N
 X                    1     1. 
 H                    1    R1       2    A1
 H                    1    R2       2    A2       3    -D1      0
 H                    1    R2       2    A2       3    D1       0
       Variables:
  R2                    1.0121                   
  A1                  112.0482                   
  A2                  112.0482                   
  D1                  120.                       
  R1                    0.9421                   
 
                          Input orientation:                          
 ---------------------------------------------------------------------
 Center     Atomic      Atomic             Coordinates (Angstroms)
 Number     Number       Type             X           Y           Z
 ---------------------------------------------------------------------
      1          7           0        0.000000    0.000000    0.000000
      2          1           0        0.873203    0.000000   -0.353652
      3          1           0       -0.469042    0.812404   -0.379929
      4          1           0       -0.469042   -0.812404   -0.379929
 ---------------------------------------------------------------------
                    Distance matrix (angstroms):
                    1          2          3          4
     1  N    0.000000
     2  H    0.942100   0.000000
     3  H    1.012100   1.569175   0.000000
     4  H    1.012100   1.569175   1.624808   0.000000
 Stoichiometry    H3N
 Framework group  CS[SG(HN),X(H2)]
 Deg. of freedom     4
 Full point group                 CS      NOp   2
 Largest Abelian subgroup         CS      NOp   2
 Largest concise Abelian subgroup CS      NOp   2
                         Standard orientation:                         
 ---------------------------------------------------------------------
 Center     Atomic      Atomic             Coordinates (Angstroms)
 Number     Number       Type             X           Y           Z
 ---------------------------------------------------------------------
      1          7           0        0.000000    0.111540   -0.000000
      2          1           0       -0.892296   -0.190720    0.000000
      3          1           0        0.446148   -0.295029    0.812404
      4          1           0        0.446148   -0.295029   -0.812404
 ---------------------------------------------------------------------
 Rotational constants (GHZ):         325.0706216         302.4095571         198.6427389
 Standard basis: Aug-CC-pVTZ (5D, 7F)
 There are    80 symmetry adapted cartesian basis functions of A'  symmetry.
 There are    50 symmetry adapted cartesian basis functions of A"  symmetry.
 There are    69 symmetry adapted basis functions of A'  symmetry.
 There are    46 symmetry adapted basis functions of A"  symmetry.
   115 basis functions,   153 primitive gaussians,   130 cartesian basis functions
     5 alpha electrons        5 beta electrons
       nuclear repulsion energy        12.2519586932 Hartrees.
 NAtoms=    4 NActive=    4 NUniq=    3 SFac= 1.78D+00 NAtFMM=   60 NAOKFM=F Big=F
 Integral buffers will be    131072 words long.
 Raffenetti 1 integral format.
 Two-electron integral symmetry is turned on.
 One-electron integrals computed using PRISM.
 NBasis=   115 RedAO= T EigKep=  2.55D-04  NBF=    69    46
 NBsUse=   115 1.00D-06 EigRej= -1.00D+00 NBFU=    69    46
 ExpMin= 2.53D-02 ExpMax= 1.14D+04 ExpMxC= 3.89D+02 IAcc=3 IRadAn=         5 AccDes= 0.00D+00
 Harris functional with IExCor=  205 and IRadAn=       5 diagonalized for initial guess.
 HarFok:  IExCor=  205 AccDes= 0.00D+00 IRadAn=         5 IDoV= 1 UseB2=F ITyADJ=14
 ICtDFT=  3500011 ScaDFX=  1.000000  1.000000  1.000000  1.000000
 FoFCou: FMM=F IPFlag=           0 FMFlag=      100000 FMFlg1=           0
         NFxFlg=           0 DoJE=T BraDBF=F KetDBF=T FulRan=T
         wScrn=  0.000000 ICntrl=       500 IOpCl=  0 I1Cent=   200000004 NGrid=           0
         NMat0=    1 NMatS0=      1 NMatT0=    0 NMatD0=    1 NMtDS0=    0 NMtDT0=    0
 Petite list used in FoFCou.
 Initial guess orbital symmetries:
       Occupied  (A') (A') (A') (A") (A')
       Virtual   (A') (A") (A') (A') (A') (A") (A') (A') (A") (A")
                 (A') (A') (A') (A") (A") (A') (A") (A') (A') (A')
                 (A") (A') (A') (A") (A') (A") (A') (A') (A') (A")
                 (A') (A") (A") (A') (A') (A") (A') (A") (A') (A")
                 (A") (A') (A') (A") (A') (A') (A') (A") (A') (A")
                 (A') (A") (A') (A") (A') (A') (A") (A') (A") (A')
                 (A') (A') (A") (A") (A') (A") (A') (A') (A") (A')
                 (A') (A") (A') (A") (A') (A") (A") (A') (A") (A")
                 (A') (A') (A') (A") (A') (A') (A") (A') (A") (A")
                 (A') (A') (A') (A") (A') (A") (A') (A') (A') (A")
                 (A') (A") (A") (A') (A') (A") (A') (A") (A') (A')
 The electronic state of the initial guess is 1-A'.
 Keep R1 ints in memory in symmetry-blocked form, NReq=35942633.
 Requested convergence on RMS density matrix=1.00D-08 within 128 cycles.
 Requested convergence on MAX density matrix=1.00D-06.
 Requested convergence on             energy=1.00D-06.
 No special actions if energy rises.
 SCF Done:  E(RHF) =  -56.2170278044     A.U. after   10 cycles
            NFock= 10  Conv=0.31D-08     -V/T= 1.9991
 ExpMin= 2.53D-02 ExpMax= 1.14D+04 ExpMxC= 3.89D+02 IAcc=3 IRadAn=         5 AccDes= 0.00D+00
 HarFok:  IExCor=  205 AccDes= 0.00D+00 IRadAn=         5 IDoV=-2 UseB2=F ITyADJ=14
 ICtDFT= 12500011 ScaDFX=  1.000000  1.000000  1.000000  1.000000
 Range of M.O.s used for correlation:     2   115
 NBasis=   115 NAE=     5 NBE=     5 NFC=     1 NFV=     0
 NROrb=    114 NOA=     4 NOB=     4 NVA=   110 NVB=   110

 **** Warning!!: The largest alpha MO coefficient is  0.20641768D+02

 Fully in-core method, ICMem=    83850841.
 JobTyp=1 Pass  1 fully in-core, NPsUse= 28.
 Spin components of T(2) and E(2):
     alpha-alpha T2 =       0.7715770236D-02 E2=     -0.2643665067D-01
     alpha-beta  T2 =       0.4967733934D-01 E2=     -0.1859254496D+00
     beta-beta   T2 =       0.7715770236D-02 E2=     -0.2643665067D-01
 ANorm=    0.1032041123D+01
 E2 =    -0.2387987510D+00 EUMP2 =    -0.56455826555401D+02

 **********************************************************************

            Population analysis using the SCF density.

 **********************************************************************

 Orbital symmetries:
       Occupied  (A') (A') (A') (A") (A')
       Virtual   (A') (A') (A") (A') (A') (A') (A") (A") (A') (A')
                 (A") (A') (A") (A') (A") (A') (A') (A") (A') (A")
                 (A') (A') (A') (A") (A') (A") (A') (A') (A') (A")
                 (A') (A") (A") (A') (A') (A") (A') (A") (A') (A")
                 (A") (A') (A') (A') (A") (A') (A') (A") (A') (A")
                 (A') (A") (A') (A") (A') (A') (A") (A') (A") (A')
                 (A') (A") (A') (A") (A") (A') (A') (A') (A") (A')
                 (A") (A') (A') (A") (A') (A") (A") (A') (A") (A')
                 (A") (A') (A') (A") (A') (A') (A") (A') (A") (A')
                 (A") (A") (A') (A') (A') (A") (A') (A') (A') (A")
                 (A') (A") (A') (A") (A') (A") (A') (A") (A') (A')
 The electronic state is 1-A'.
 Alpha  occ. eigenvalues --  -15.53348  -1.15627  -0.64857  -0.62910  -0.43051
 Alpha virt. eigenvalues --    0.02972   0.04860   0.04862   0.11725   0.15325
 Alpha virt. eigenvalues --    0.16209   0.16228   0.22139   0.22516   0.23593
 Alpha virt. eigenvalues --    0.23635   0.25651   0.35685   0.35849   0.37084
 Alpha virt. eigenvalues --    0.37164   0.43169   0.46002   0.46511   0.48747
 Alpha virt. eigenvalues --    0.49446   0.56297   0.60395   0.60463   0.75322
 Alpha virt. eigenvalues --    0.78715   0.79829   0.81643   0.89070   0.90527
 Alpha virt. eigenvalues --    0.91559   0.91627   0.97869   0.99018   1.03333
 Alpha virt. eigenvalues --    1.03633   1.05705   1.08570   1.10534   1.10717
 Alpha virt. eigenvalues --    1.14432   1.14771   1.19368   1.22257   1.22472
 Alpha virt. eigenvalues --    1.31421   1.36174   1.36576   1.61663   1.75985
 Alpha virt. eigenvalues --    1.78583   1.79508   1.86272   1.86645   1.88085
 Alpha virt. eigenvalues --    2.00809   2.03863   2.04938   2.05423   2.07634
 Alpha virt. eigenvalues --    2.26992   2.34669   2.37689   2.38749   2.44982
 Alpha virt. eigenvalues --    2.45089   2.51767   3.39904   3.56682   3.58945
 Alpha virt. eigenvalues --    3.97243   3.99094   4.06508   4.15128   4.16227
 Alpha virt. eigenvalues --    4.23088   4.26140   4.28692   4.28940   4.34781
 Alpha virt. eigenvalues --    4.36455   4.38003   4.47589   4.55268   4.58063
 Alpha virt. eigenvalues --    4.72064   4.78665   4.80493   4.94670   5.00901
 Alpha virt. eigenvalues --    5.03904   5.06856   5.08066   5.12934   5.31167
 Alpha virt. eigenvalues --    5.65675   5.66619   5.79509   5.94606   6.01836
 Alpha virt. eigenvalues --    6.14560   6.38381   6.50967   6.51526   6.71450
 Alpha virt. eigenvalues --    7.01571   7.15557   7.69606   7.80360  18.04861
          Condensed to atoms (all electrons):
               1          2          3          4
     1  N    6.532846   0.355457   0.341330   0.341330
     2  H    0.355457   0.484284  -0.003920  -0.003920
     3  H    0.341330  -0.003920   0.458848   0.002310
     4  H    0.341330  -0.003920   0.002310   0.458848
 Mulliken charges:
               1
     1  N   -0.570964
     2  H    0.168099
     3  H    0.201432
     4  H    0.201432
 Sum of Mulliken charges =   0.00000
 Mulliken charges with hydrogens summed into heavy atoms:
               1
     1  N    0.000000
 Electronic spatial extent (au):  <R**2>=             26.1051
 Charge=              0.0000 electrons
 Dipole moment (field-independent basis, Debye):
    X=             -0.0796    Y=             -1.6164    Z=             -0.0000  Tot=              1.6183
 Quadrupole moment (field-independent basis, Debye-Ang):
   XX=             -6.2904   YY=             -9.1668   ZZ=             -6.1493
   XY=             -0.2000   XZ=             -0.0000   YZ=              0.0000
 Traceless Quadrupole moment (field-independent basis, Debye-Ang):
   XX=              0.9118   YY=             -1.9646   ZZ=              1.0529
   XY=             -0.2000   XZ=             -0.0000   YZ=              0.0000
 Octapole moment (field-independent basis, Debye-Ang**2):
  XXX=             -1.0427  YYY=             -1.4347  ZZZ=              0.0000  XYY=             -0.0130
  XXY=             -0.8040  XXZ=             -0.0000  XZZ=              0.8484  YZZ=             -0.9866
  YYZ=             -0.0000  XYZ=              0.0000
 Hexadecapole moment (field-independent basis, Debye-Ang**3):
 XXXX=             -9.4532 YYYY=            -12.0204 ZZZZ=             -9.9006 XXXY=              0.2901
 XXXZ=              0.0000 YYYX=              0.0839 YYYZ=             -0.0000 ZZZX=             -0.0000
 ZZZY=             -0.0000 XXYY=             -3.7357 XXZZ=             -3.2210 YYZZ=             -3.7616
 XXYZ=              0.0000 YYXZ=             -0.0000 ZZXY=             -0.3458
 N-N= 1.225195869318D+01 E-N=-1.564071661493D+02  KE= 5.626505794327D+01
 Symmetry A'   KE= 5.365482324547D+01
 Symmetry A"   KE= 2.610234697806D+00
 Breneman (CHELPG) radii used.
 Generate Potential Derived Charges using the Breneman model, NDens= 1.
 Grid spacing= 0.300 Box extension= 2.800
 NStep X,Y,Z=   25     22     26   Total possible points=       14300
 Number of Points to Fit=    4632

 **********************************************************************

            Electrostatic Properties Using The SCF Density

 **********************************************************************

       Atomic Center    1 is at   0.000000  0.111540 -0.000000
       Atomic Center    2 is at  -0.892296 -0.190720  0.000000
       Atomic Center    3 is at   0.446148 -0.295029  0.812404
       Atomic Center    4 is at   0.446148 -0.295029 -0.812404
    4632 points will be used for fitting atomic charges
 Fitting point charges to electrostatic potential
 Charges from ESP fit, RMS=   0.00383 RRMS=   0.22804:
 ESP charges:
               1
     1  N   -0.937100
     2  H    0.325188
     3  H    0.305956
     4  H    0.305956
 Sum of ESP charges =  -0.00000
 ESP charges with hydrogens summed into heavy atoms:
               1
     1  N   -0.000000
 Charge=  -0.00000 Dipole=    -0.0824    -1.6671    -0.0000 Tot=     1.6691
 -----------------------------------------------------------------

              Electrostatic Properties (Atomic Units)

 -----------------------------------------------------------------
    Center     Electric         -------- Electric Field --------
               Potential          X             Y             Z
 -----------------------------------------------------------------
    1 Atom    -18.384671
    2 Atom     -1.076894
    3 Atom     -1.066829
    4 Atom     -1.066829
 -----------------------------------------------------------------
 1\1\GINC-N2207\SP\RMP2-FC\Aug-CC-pVTZ\H3N1\GDS001\09-Mar-2024\0\\# mp2
 /aug-cc-pVTZ Pop=ChelpG\\Title: R = 0.9421\\0,1\N\X,1,1.\H,1,0.9421,2,
 112.0482\H,1,1.0121,2,112.0482,3,-120.,0\H,1,1.0121,2,112.0482,3,120.,
 0\\Version=ES64L-G16RevA.03\State=1-A'\HF=-56.2170278\MP2=-56.4558266\
 RMSD=3.091e-09\PG=CS [SG(H1N1),X(H2)]\\@


 MOST BUREAUCRACIES FUNCTION LIKE A SEPTIC TANK.
 THE LARGE CHUNKS RISE TO THE TOP.
 Job cpu time:       0 days  0 hours  1 minutes  9.8 seconds.
 Elapsed time:       0 days  0 hours  0 minutes  2.9 seconds.
 File lengths (MBytes):  RWF=     72 Int=      0 D2E=      0 Chk=      8 Scr=      8
 Normal termination of Gaussian 16 at Sat Mar  9 10:58:34 2024.
 Initial command:
 /sw/contrib/gaussian/g16/A03/g16/l1.exe "/gscratch/scrubbed/gds001/Gau-16250.inp" -scrdir="/gscratch/scrubbed/gds001/"
 Entering Link 1 = /sw/contrib/gaussian/g16/A03/g16/l1.exe PID=     17752.
  
 Copyright (c) 1988,1990,1992,1993,1995,1998,2003,2009,2016,
            Gaussian, Inc.  All Rights Reserved.
  
 This is part of the Gaussian(R) 16 program.  It is based on
 the Gaussian(R) 09 system (copyright 2009, Gaussian, Inc.),
 the Gaussian(R) 03 system (copyright 2003, Gaussian, Inc.),
 the Gaussian(R) 98 system (copyright 1998, Gaussian, Inc.),
 the Gaussian(R) 94 system (copyright 1995, Gaussian, Inc.),
 the Gaussian 92(TM) system (copyright 1992, Gaussian, Inc.),
 the Gaussian 90(TM) system (copyright 1990, Gaussian, Inc.),
 the Gaussian 88(TM) system (copyright 1988, Gaussian, Inc.),
 the Gaussian 86(TM) system (copyright 1986, Carnegie Mellon
 University), and the Gaussian 82(TM) system (copyright 1983,
 Carnegie Mellon University). Gaussian is a federally registered
 trademark of Gaussian, Inc.
  
 This software contains proprietary and confidential information,
 including trade secrets, belonging to Gaussian, Inc.
  
 This software is provided under written license and may be
 used, copied, transmitted, or stored only in accord with that
 written license.
  
 The following legend is applicable only to US Government
 contracts under FAR:
  
                    RESTRICTED RIGHTS LEGEND
  
 Use, reproduction and disclosure by the US Government is
 subject to restrictions as set forth in subparagraphs (a)
 and (c) of the Commercial Computer Software - Restricted
 Rights clause in FAR 52.227-19.
  
 Gaussian, Inc.
 340 Quinnipiac St., Bldg. 40, Wallingford CT 06492
  
  
 ---------------------------------------------------------------
 Warning -- This program may not be used in any manner that
 competes with the business of Gaussian, Inc. or will provide
 assistance to any competitor of Gaussian, Inc.  The licensee
 of this program is prohibited from giving any competitor of
 Gaussian, Inc. access to this program.  By using this program,
 the user acknowledges that Gaussian, Inc. is engaged in the
 business of creating and licensing software in the field of
 computational chemistry and represents and warrants to the
 licensee that it is not a competitor of Gaussian, Inc. and that
 it will not use this program in any manner prohibited above.
 ---------------------------------------------------------------
  

 Cite this work as:
 Gaussian 16, Revision A.03,
 M. J. Frisch, G. W. Trucks, H. B. Schlegel, G. E. Scuseria, 
 M. A. Robb, J. R. Cheeseman, G. Scalmani, V. Barone, 
 G. A. Petersson, H. Nakatsuji, X. Li, M. Caricato, A. V. Marenich, 
 J. Bloino, B. G. Janesko, R. Gomperts, B. Mennucci, H. P. Hratchian, 
 J. V. Ortiz, A. F. Izmaylov, J. L. Sonnenberg, D. Williams-Young, 
 F. Ding, F. Lipparini, F. Egidi, J. Goings, B. Peng, A. Petrone, 
 T. Henderson, D. Ranasinghe, V. G. Zakrzewski, J. Gao, N. Rega, 
 G. Zheng, W. Liang, M. Hada, M. Ehara, K. Toyota, R. Fukuda, 
 J. Hasegawa, M. Ishida, T. Nakajima, Y. Honda, O. Kitao, H. Nakai, 
 T. Vreven, K. Throssell, J. A. Montgomery, Jr., J. E. Peralta, 
 F. Ogliaro, M. J. Bearpark, J. J. Heyd, E. N. Brothers, K. N. Kudin, 
 V. N. Staroverov, T. A. Keith, R. Kobayashi, J. Normand, 
 K. Raghavachari, A. P. Rendell, J. C. Burant, S. S. Iyengar, 
 J. Tomasi, M. Cossi, J. M. Millam, M. Klene, C. Adamo, R. Cammi, 
 J. W. Ochterski, R. L. Martin, K. Morokuma, O. Farkas, 
 J. B. Foresman, and D. J. Fox, Gaussian, Inc., Wallingford CT, 2016.
 
 ******************************************
 Gaussian 16:  ES64L-G16RevA.03 25-Dec-2016
                 9-Mar-2024 
 ******************************************
 %nprocshared=28
 Will use up to   28 processors via shared memory.
 %mem=41GB
 ----------------------------
 # mp2/aug-cc-pVTZ Pop=ChelpG
 ----------------------------
 1/38=1,172=1/1;
 2/12=2,17=6,18=5,40=1/2;
 3/5=16,6=1,7=10,11=9,25=1,30=1/1,2,3;
 4//1;
 5/5=2,38=5/2;
 8/10=1/1;
 9/16=-3/6;
 6/7=2,8=2,9=2,10=2,15=8,20=3/1,2;
 99/5=1,9=1/99;
 -----------------
 Title: R = 0.9521
 -----------------
 Symbolic Z-matrix:
 Charge =  0 Multiplicity = 1
 N
 X                    1     1. 
 H                    1    R1       2    A1
 H                    1    R2       2    A2       3    -D1      0
 H                    1    R2       2    A2       3    D1       0
       Variables:
  R2                    1.0121                   
  A1                  112.0482                   
  A2                  112.0482                   
  D1                  120.                       
  R1                    0.9521                   
 
                          Input orientation:                          
 ---------------------------------------------------------------------
 Center     Atomic      Atomic             Coordinates (Angstroms)
 Number     Number       Type             X           Y           Z
 ---------------------------------------------------------------------
      1          7           0        0.000000    0.000000    0.000000
      2          1           0        0.882471    0.000000   -0.357405
      3          1           0       -0.469042    0.812404   -0.379929
      4          1           0       -0.469042   -0.812404   -0.379929
 ---------------------------------------------------------------------
                    Distance matrix (angstroms):
                    1          2          3          4
     1  N    0.000000
     2  H    0.952100   0.000000
     3  H    1.012100   1.577053   0.000000
     4  H    1.012100   1.577053   1.624808   0.000000
 Stoichiometry    H3N
 Framework group  CS[SG(HN),X(H2)]
 Deg. of freedom     4
 Full point group                 CS      NOp   2
 Largest Abelian subgroup         CS      NOp   2
 Largest concise Abelian subgroup CS      NOp   2
                         Standard orientation:                         
 ---------------------------------------------------------------------
 Center     Atomic      Atomic             Coordinates (Angstroms)
 Number     Number       Type             X           Y           Z
 ---------------------------------------------------------------------
      1          7           0        0.000000    0.111865   -0.000000
      2          1           0       -0.899148   -0.201228   -0.000000
      3          1           0        0.449574   -0.290912    0.812404
      4          1           0        0.449574   -0.290912   -0.812404
 ---------------------------------------------------------------------
 Rotational constants (GHZ):         321.2157838         301.9074514         197.4107109
 Standard basis: Aug-CC-pVTZ (5D, 7F)
 There are    80 symmetry adapted cartesian basis functions of A'  symmetry.
 There are    50 symmetry adapted cartesian basis functions of A"  symmetry.
 There are    69 symmetry adapted basis functions of A'  symmetry.
 There are    46 symmetry adapted basis functions of A"  symmetry.
   115 basis functions,   153 primitive gaussians,   130 cartesian basis functions
     5 alpha electrons        5 beta electrons
       nuclear repulsion energy        12.2072925840 Hartrees.
 NAtoms=    4 NActive=    4 NUniq=    3 SFac= 1.78D+00 NAtFMM=   60 NAOKFM=F Big=F
 Integral buffers will be    131072 words long.
 Raffenetti 1 integral format.
 Two-electron integral symmetry is turned on.
 One-electron integrals computed using PRISM.
 NBasis=   115 RedAO= T EigKep=  2.58D-04  NBF=    69    46
 NBsUse=   115 1.00D-06 EigRej= -1.00D+00 NBFU=    69    46
 ExpMin= 2.53D-02 ExpMax= 1.14D+04 ExpMxC= 3.89D+02 IAcc=3 IRadAn=         5 AccDes= 0.00D+00
 Harris functional with IExCor=  205 and IRadAn=       5 diagonalized for initial guess.
 HarFok:  IExCor=  205 AccDes= 0.00D+00 IRadAn=         5 IDoV= 1 UseB2=F ITyADJ=14
 ICtDFT=  3500011 ScaDFX=  1.000000  1.000000  1.000000  1.000000
 FoFCou: FMM=F IPFlag=           0 FMFlag=      100000 FMFlg1=           0
[...]
       Atomic Center    2 is at  -0.989598 -0.367445  0.000000
       Atomic Center    3 is at   0.494799 -0.228063  0.812404
       Atomic Center    4 is at   0.494799 -0.228063 -0.812404
    4700 points will be used for fitting atomic charges
 Fitting point charges to electrostatic potential
 Charges from ESP fit, RMS=   0.00392 RRMS=   0.23403:
 ESP charges:
               1
     1  N   -0.888958
     2  H    0.280388
     3  H    0.304285
     4  H    0.304285
 Sum of ESP charges =  -0.00000
 ESP charges with hydrogens summed into heavy atoms:
               1
     1  N   -0.000000
 Charge=  -0.00000 Dipole=     0.1136    -1.6639     0.0000 Tot=     1.6677
 -----------------------------------------------------------------

              Electrostatic Properties (Atomic Units)

 -----------------------------------------------------------------
    Center     Electric         -------- Electric Field --------
               Potential          X             Y             Z
 -----------------------------------------------------------------
    1 Atom    -18.365164
    2 Atom     -1.047569
    3 Atom     -1.065842
    4 Atom     -1.065842
 -----------------------------------------------------------------
 1\1\GINC-N2207\SP\RMP2-FC\Aug-CC-pVTZ\H3N1\GDS001\09-Mar-2024\0\\# mp2
 /aug-cc-pVTZ Pop=ChelpG\\Title: R = 1.1021\\0,1\N\X,1,1.\H,1,1.1021,2,
 112.0482\H,1,1.0121,2,112.0482,3,-120.,0\H,1,1.0121,2,112.0482,3,120.,
 0\\Version=ES64L-G16RevA.03\State=1-A'\HF=-56.2128294\MP2=-56.4549559\
 RMSD=3.722e-09\PG=CS [SG(H1N1),X(H2)]\\@


 Any fool can criticize, condemn, and complain -- and most do.
 -- Dale Carnegie
 Job cpu time:       0 days  0 hours  1 minutes 22.1 seconds.
 Elapsed time:       0 days  0 hours  0 minutes  3.3 seconds.
 File lengths (MBytes):  RWF=     72 Int=      0 D2E=      0 Chk=      8 Scr=      8
 Normal termination of Gaussian 16 at Sat Mar  9 10:59:27 2024.
 Initial command:
 /sw/contrib/gaussian/g16/A03/g16/l1.exe "/gscratch/scrubbed/gds001/Gau-16250.inp" -scrdir="/gscratch/scrubbed/gds001/"
 Entering Link 1 = /sw/contrib/gaussian/g16/A03/g16/l1.exe PID=     23626.
  
 Copyright (c) 1988,1990,1992,1993,1995,1998,2003,2009,2016,
            Gaussian, Inc.  All Rights Reserved.
  
 This is part of the Gaussian(R) 16 program.  It is based on
 the Gaussian(R) 09 system (copyright 2009, Gaussian, Inc.),
 the Gaussian(R) 03 system (copyright 2003, Gaussian, Inc.),
 the Gaussian(R) 98 system (copyright 1998, Gaussian, Inc.),
 the Gaussian(R) 94 system (copyright 1995, Gaussian, Inc.),
 the Gaussian 92(TM) system (copyright 1992, Gaussian, Inc.),
 the Gaussian 90(TM) system (copyright 1990, Gaussian, Inc.),
 the Gaussian 88(TM) system (copyright 1988, Gaussian, Inc.),
 the Gaussian 86(TM) system (copyright 1986, Carnegie Mellon
 University), and the Gaussian 82(TM) system (copyright 1983,
 Carnegie Mellon University). Gaussian is a federally registered
 trademark of Gaussian, Inc.
  
 This software contains proprietary and confidential information,
 including trade secrets, belonging to Gaussian, Inc.
  
 This software is provided under written license and may be
 used, copied, transmitted, or stored only in accord with that
 written license.
  
 The following legend is applicable only to US Government
 contracts under FAR:
  
                    RESTRICTED RIGHTS LEGEND
  
 Use, reproduction and disclosure by the US Government is
 subject to restrictions as set forth in subparagraphs (a)
 and (c) of the Commercial Computer Software - Restricted
 Rights clause in FAR 52.227-19.
  
 Gaussian, Inc.
 340 Quinnipiac St., Bldg. 40, Wallingford CT 06492
  
  
 ---------------------------------------------------------------
 Warning -- This program may not be used in any manner that
 competes with the business of Gaussian, Inc. or will provide
 assistance to any competitor of Gaussian, Inc.  The licensee
 of this program is prohibited from giving any competitor of
 Gaussian, Inc. access to this program.  By using this program,
 the user acknowledges that Gaussian, Inc. is engaged in the
 business of creating and licensing software in the field of
 computational chemistry and represents and warrants to the
 licensee that it is not a competitor of Gaussian, Inc. and that
 it will not use this program in any manner prohibited above.
 ---------------------------------------------------------------
  

 Cite this work as:
 Gaussian 16, Revision A.03,
 M. J. Frisch, G. W. Trucks, H. B. Schlegel, G. E. Scuseria, 
 M. A. Robb, J. R. Cheeseman, G. Scalmani, V. Barone, 
 G. A. Petersson, H. Nakatsuji, X. Li, M. Caricato, A. V. Marenich, 
 J. Bloino, B. G. Janesko, R. Gomperts, B. Mennucci, H. P. Hratchian, 
 J. V. Ortiz, A. F. Izmaylov, J. L. Sonnenberg, D. Williams-Young, 
 F. Ding, F. Lipparini, F. Egidi, J. Goings, B. Peng, A. Petrone, 
 T. Henderson, D. Ranasinghe, V. G. Zakrzewski, J. Gao, N. Rega, 
 G. Zheng, W. Liang, M. Hada, M. Ehara, K. Toyota, R. Fukuda, 
 J. Hasegawa, M. Ishida, T. Nakajima, Y. Honda, O. Kitao, H. Nakai, 
 T. Vreven, K. Throssell, J. A. Montgomery, Jr., J. E. Peralta, 
 F. Ogliaro, M. J. Bearpark, J. J. Heyd, E. N. Brothers, K. N. Kudin, 
 V. N. Staroverov, T. A. Keith, R. Kobayashi, J. Normand, 
 K. Raghavachari, A. P. Rendell, J. C. Burant, S. S. Iyengar, 
 J. Tomasi, M. Cossi, J. M. Millam, M. Klene, C. Adamo, R. Cammi, 
 J. W. Ochterski, R. L. Martin, K. Morokuma, O. Farkas, 
 J. B. Foresman, and D. J. Fox, Gaussian, Inc., Wallingford CT, 2016.
 
 ******************************************
 Gaussian 16:  ES64L-G16RevA.03 25-Dec-2016
                 9-Mar-2024 
 ******************************************
 %nprocshared=28
 Will use up to   28 processors via shared memory.
 %mem=41GB
 ----------------------------
 # mp2/aug-cc-pVTZ Pop=ChelpG
 ----------------------------
 1/38=1,172=1/1;
 2/12=2,17=6,18=5,40=1/2;
 3/5=16,6=1,7=10,11=9,25=1,30=1/1,2,3;
 4//1;
 5/5=2,38=5/2;
 8/10=1/1;
 9/16=-3/6;
 6/7=2,8=2,9=2,10=2,15=8,20=3/1,2;
 99/5=1,9=1/99;
 -----------------
 Title: R = 1.1121
 -----------------
 Symbolic Z-matrix:
 Charge =  0 Multiplicity = 1
 N
 X                    1     1. 
 H                    1    R1       2    A1
 H                    1    R2       2    A2       3    -D1      0
 H                    1    R2       2    A2       3    D1       0
       Variables:
  R2                    1.0121                   
  A1                  112.0482                   
  A2                  112.0482                   
  D1                  120.                       
  R1                    1.1121                   
 
                          Input orientation:                          
 ---------------------------------------------------------------------
 Center     Atomic      Atomic             Coordinates (Angstroms)
 Number     Number       Type             X           Y           Z
 ---------------------------------------------------------------------
      1          7           0        0.000000    0.000000    0.000000
      2          1           0        1.030770    0.000000   -0.417467
      3          1           0       -0.469042    0.812404   -0.379929
      4          1           0       -0.469042   -0.812404   -0.379929
 ---------------------------------------------------------------------
                    Distance matrix (angstroms):
                    1          2          3          4
     1  N    0.000000
     2  H    1.112100   0.000000
     3  H    1.012100   1.706120   0.000000
     4  H    1.012100   1.706120   1.624808   0.000000
 Stoichiometry    H3N
 Framework group  CS[SG(HN),X(H2)]
 Deg. of freedom     4
 Full point group                 CS      NOp   2
 Largest Abelian subgroup         CS      NOp   2
 Largest concise Abelian subgroup CS      NOp   2
                         Standard orientation:                         
 ---------------------------------------------------------------------
 Center     Atomic      Atomic             Coordinates (Angstroms)
 Number     Number       Type             X           Y           Z
 ---------------------------------------------------------------------
      1          7           0        0.000000    0.118097    0.000000
      2          1           0       -0.994826   -0.378982    0.000000
      3          1           0        0.497413   -0.223848    0.812404
      4          1           0        0.497413   -0.223848   -0.812404
 ---------------------------------------------------------------------
 Rotational constants (GHZ):         295.5154061         266.3199195         177.4419250
 Standard basis: Aug-CC-pVTZ (5D, 7F)
 There are    80 symmetry adapted cartesian basis functions of A'  symmetry.
 There are    50 symmetry adapted cartesian basis functions of A"  symmetry.
 There are    69 symmetry adapted basis functions of A'  symmetry.
 There are    46 symmetry adapted basis functions of A"  symmetry.
   115 basis functions,   153 primitive gaussians,   130 cartesian basis functions
     5 alpha electrons        5 beta electrons
       nuclear repulsion energy        11.5967761447 Hartrees.
 NAtoms=    4 NActive=    4 NUniq=    3 SFac= 1.78D+00 NAtFMM=   60 NAOKFM=F Big=F
 Integral buffers will be    131072 words long.
 Raffenetti 1 integral format.
 Two-electron integral symmetry is turned on.
 One-electron integrals computed using PRISM.
 NBasis=   115 RedAO= T EigKep=  2.81D-04  NBF=    69    46
 NBsUse=   115 1.00D-06 EigRej= -1.00D+00 NBFU=    69    46
 ExpMin= 2.53D-02 ExpMax= 1.14D+04 ExpMxC= 3.89D+02 IAcc=3 IRadAn=         5 AccDes= 0.00D+00
 Harris functional with IExCor=  205 and IRadAn=       5 diagonalized for initial guess.
 HarFok:  IExCor=  205 AccDes= 0.00D+00 IRadAn=         5 IDoV= 1 UseB2=F ITyADJ=14
 ICtDFT=  3500011 ScaDFX=  1.000000  1.000000  1.000000  1.000000
 FoFCou: FMM=F IPFlag=           0 FMFlag=      100000 FMFlg1=           0
         NFxFlg=           0 DoJE=T BraDBF=F KetDBF=T FulRan=T
         wScrn=  0.000000 ICntrl=       500 IOpCl=  0 I1Cent=   200000004 NGrid=           0
         NMat0=    1 NMatS0=      1 NMatT0=    0 NMatD0=    1 NMtDS0=    0 NMtDT0=    0
 Petite list used in FoFCou.
 Initial guess orbital symmetries:
       Occupied  (A') (A') (A") (A') (A')
       Virtual   (A') (A') (A") (A') (A') (A') (A") (A") (A') (A')
                 (A") (A') (A') (A') (A") (A") (A') (A") (A') (A")
                 (A') (A') (A") (A') (A') (A') (A") (A') (A') (A')
                 (A") (A") (A') (A") (A') (A") (A') (A") (A') (A")
                 (A') (A") (A') (A') (A") (A') (A") (A') (A') (A')
                 (A") (A") (A') (A') (A") (A') (A') (A") (A') (A")
                 (A') (A") (A') (A") (A") (A') (A') (A') (A') (A")
                 (A') (A') (A") (A') (A") (A") (A') (A") (A") (A')
                 (A") (A') (A') (A') (A") (A') (A") (A') (A') (A")
                 (A') (A') (A") (A") (A') (A") (A') (A') (A") (A')
                 (A') (A') (A") (A") (A') (A') (A") (A') (A") (A')
 The electronic state of the initial guess is 1-A'.
 Keep R1 ints in memory in symmetry-blocked form, NReq=35942545.
 Requested convergence on RMS density matrix=1.00D-08 within 128 cycles.
 Requested convergence on MAX density matrix=1.00D-06.
 Requested convergence on             energy=1.00D-06.
 No special actions if energy rises.
 SCF Done:  E(RHF) =  -56.2114355572     A.U. after   10 cycles
            NFock= 10  Conv=0.39D-08     -V/T= 2.0041
 ExpMin= 2.53D-02 ExpMax= 1.14D+04 ExpMxC= 3.89D+02 IAcc=3 IRadAn=         5 AccDes= 0.00D+00
 HarFok:  IExCor=  205 AccDes= 0.00D+00 IRadAn=         5 IDoV=-2 UseB2=F ITyADJ=14
 ICtDFT= 12500011 ScaDFX=  1.000000  1.000000  1.000000  1.000000
 Range of M.O.s used for correlation:     2   115
 NBasis=   115 NAE=     5 NBE=     5 NFC=     1 NFV=     0
 NROrb=    114 NOA=     4 NOB=     4 NVA=   110 NVB=   110

 **** Warning!!: The largest alpha MO coefficient is  0.15743768D+02

 Fully in-core method, ICMem=    83850841.
 JobTyp=1 Pass  1 fully in-core, NPsUse= 28.
 Spin components of T(2) and E(2):
     alpha-alpha T2 =       0.8173023113D-02 E2=     -0.2671560799D-01
     alpha-beta  T2 =       0.5330008209D-01 E2=     -0.1889118144D+00
     beta-beta   T2 =       0.8173023113D-02 E2=     -0.2671560799D-01
 ANorm=    0.1034236979D+01
 E2 =    -0.2423430304D+00 EUMP2 =    -0.56453778587630D+02

 **********************************************************************

            Population analysis using the SCF density.

 **********************************************************************

 Orbital symmetries:
       Occupied  (A') (A') (A") (A') (A')
       Virtual   (A') (A") (A') (A') (A') (A") (A') (A') (A") (A")
                 (A') (A') (A") (A') (A') (A") (A') (A') (A") (A")
                 (A') (A') (A") (A') (A') (A') (A") (A') (A') (A")
                 (A') (A") (A') (A") (A') (A") (A') (A") (A") (A')
                 (A') (A") (A') (A") (A') (A') (A") (A') (A') (A")
                 (A') (A") (A') (A") (A') (A') (A') (A") (A") (A')
                 (A') (A") (A") (A') (A") (A') (A') (A') (A') (A")
                 (A') (A") (A') (A") (A') (A") (A") (A') (A") (A')
                 (A') (A") (A') (A') (A") (A') (A") (A') (A') (A")
                 (A") (A') (A') (A") (A') (A') (A") (A') (A") (A')
                 (A') (A') (A") (A") (A') (A') (A") (A') (A") (A')
 The electronic state is 1-A'.
 Alpha  occ. eigenvalues --  -15.55254  -1.12768  -0.62908  -0.60161  -0.42792
 Alpha virt. eigenvalues --    0.02920   0.04875   0.04879   0.11851   0.15055
 Alpha virt. eigenvalues --    0.16242   0.16275   0.21448   0.22147   0.23406
 Alpha virt. eigenvalues --    0.23479   0.25215   0.35498   0.35619   0.36899
 Alpha virt. eigenvalues --    0.37069   0.41784   0.45108   0.46177   0.48643
 Alpha virt. eigenvalues --    0.48724   0.56603   0.59908   0.59996   0.73419
 Alpha virt. eigenvalues --    0.77094   0.78421   0.80675   0.87416   0.89995
 Alpha virt. eigenvalues --    0.91415   0.91428   0.96562   0.98342   1.01672
 Alpha virt. eigenvalues --    1.03315   1.03706   1.07300   1.10025   1.10027
 Alpha virt. eigenvalues --    1.13084   1.13744   1.18083   1.21203   1.21608
 Alpha virt. eigenvalues --    1.33599   1.36027   1.36634   1.61750   1.70993
 Alpha virt. eigenvalues --    1.71812   1.76026   1.83763   1.86168   1.86646
 Alpha virt. eigenvalues --    1.96844   1.99863   2.03881   2.04771   2.04823
 Alpha virt. eigenvalues --    2.24890   2.32378   2.36218   2.39681   2.42556
 Alpha virt. eigenvalues --    2.43074   2.47263   3.35649   3.50211   3.55593
 Alpha virt. eigenvalues --    3.93693   3.96493   4.02062   4.10264   4.12106
 Alpha virt. eigenvalues --    4.15228   4.19303   4.20917   4.24649   4.29142
 Alpha virt. eigenvalues --    4.30999   4.35580   4.44232   4.46036   4.55136
 Alpha virt. eigenvalues --    4.62169   4.70087   4.72378   4.85430   4.86742
 Alpha virt. eigenvalues --    4.95179   5.00958   5.04316   5.07494   5.21036
 Alpha virt. eigenvalues --    5.61137   5.64179   5.70785   5.71161   5.85823
 Alpha virt. eigenvalues --    5.93412   6.18327   6.26405   6.33846   6.50062
 Alpha virt. eigenvalues --    6.80660   6.85310   7.46632   7.68269  16.33626
          Condensed to atoms (all electrons):
               1          2          3          4
     1  N    6.637788   0.320853   0.328371   0.328371
     2  H    0.320853   0.442828   0.009021   0.009021
     3  H    0.328371   0.009021   0.462869   0.001186
     4  H    0.328371   0.009021   0.001186   0.462869
 Mulliken charges:
               1
     1  N   -0.615384
     2  H    0.218278
     3  H    0.198553
     4  H    0.198553
 Sum of Mulliken charges =  -0.00000
 Mulliken charges with hydrogens summed into heavy atoms:
               1
     1  N   -0.000000
 Electronic spatial extent (au):  <R**2>=             27.4546
 Charge=             -0.0000 electrons
 Dipole moment (field-independent basis, Debye):
    X=              0.1192    Y=             -1.5954    Z=             -0.0000  Tot=              1.5998
 Quadrupole moment (field-independent basis, Debye-Ang):
   XX=             -6.1593   YY=             -9.3377   ZZ=             -6.3196
   XY=              0.2996   XZ=             -0.0000   YZ=             -0.0000
 Traceless Quadrupole moment (field-independent basis, Debye-Ang):
   XX=              1.1129   YY=             -2.0655   ZZ=              0.9526
   XY=              0.2996   XZ=             -0.0000   YZ=             -0.0000
 Octapole moment (field-independent basis, Debye-Ang**2):
  XXX=             -0.8485  YYY=             -1.2656  ZZZ=             -0.0000  XYY=             -0.0136
  XXY=             -1.0547  XXZ=             -0.0000  XZZ=              1.1525  YZZ=             -0.7666
  YYZ=              0.0000  XYZ=              0.0000
 Hexadecapole moment (field-independent basis, Debye-Ang**3):
 XXXX=            -10.7990 YYYY=            -12.6201 ZZZZ=            -10.1040 XXXY=              0.4301
 XXXZ=             -0.0000 YYYX=             -0.1817 YYYZ=              0.0000 ZZZX=             -0.0000
 ZZZY=             -0.0000 XXYY=             -3.9887 XXZZ=             -3.4966 YYZZ=             -4.0022
 XXYZ=              0.0000 YYXZ=              0.0000 ZZXY=             -0.4055
 N-N= 1.159677614473D+01 E-N=-1.549192434939D+02  KE= 5.598046661735D+01
 Symmetry A'   KE= 5.335767342570D+01
 Symmetry A"   KE= 2.622793191646D+00
 Breneman (CHELPG) radii used.
 Generate Potential Derived Charges using the Breneman model, NDens= 1.
 Grid spacing= 0.300 Box extension= 2.800
 NStep X,Y,Z=   25     22     26   Total possible points=       14300
 Number of Points to Fit=    4696

 **********************************************************************

            Electrostatic Properties Using The SCF Density

 **********************************************************************

       Atomic Center    1 is at   0.000000  0.118097  0.000000
       Atomic Center    2 is at  -0.994826 -0.378982  0.000000
       Atomic Center    3 is at   0.497413 -0.223848  0.812404
       Atomic Center    4 is at   0.497413 -0.223848 -0.812404
    4696 points will be used for fitting atomic charges
 Fitting point charges to electrostatic potential
 Charges from ESP fit, RMS=   0.00394 RRMS=   0.23533:
 ESP charges:
               1
     1  N   -0.886010
     2  H    0.277491
     3  H    0.304260
     4  H    0.304260
 Sum of ESP charges =  -0.00000
 ESP charges with hydrogens summed into heavy atoms:
               1
     1  N   -0.000000
 Charge=  -0.00000 Dipole=     0.1279    -1.6620    -0.0000 Tot=     1.6669
 -----------------------------------------------------------------

              Electrostatic Properties (Atomic Units)

 -----------------------------------------------------------------
    Center     Electric         -------- Electric Field --------
               Potential          X             Y             Z
 -----------------------------------------------------------------
    1 Atom    -18.364142
    2 Atom     -1.045245
    3 Atom     -1.065727
    4 Atom     -1.065727
 -----------------------------------------------------------------
 1\1\GINC-N2207\SP\RMP2-FC\Aug-CC-pVTZ\H3N1\GDS001\09-Mar-2024\0\\# mp2
 /aug-cc-pVTZ Pop=ChelpG\\Title: R = 1.1121\\0,1\N\X,1,1.\H,1,1.1121,2,
 112.0482\H,1,1.0121,2,112.0482,3,-120.,0\H,1,1.0121,2,112.0482,3,120.,
 0\\Version=ES64L-G16RevA.03\State=1-A'\HF=-56.2114356\MP2=-56.4537786\
 RMSD=3.873e-09\PG=CS [SG(H1N1),X(H2)]\\@


 A CHEMICAL PHYSICIST MAKES PRECISE MEASUREMENTS ON IMPURE COMPOUNDS.
 A THEORETICAL PHYSICAL CHEMIST MAKES IMPRECISE
     MEASUREMENTS ON PURE COMPOUNDS.
 AN EXPERIMENTAL PHYSICAL CHEMIST MAKES IMPRECISE
     MEASUREMENTS ON IMPURE COMPOUNDS.
 Job cpu time:       0 days  0 hours  1 minutes  8.0 seconds.
 Elapsed time:       0 days  0 hours  0 minutes  2.8 seconds.
 File lengths (MBytes):  RWF=     72 Int=      0 D2E=      0 Chk=      8 Scr=      8
 Normal termination of Gaussian 16 at Sat Mar  9 10:59:30 2024.
