 Entering Gaussian System, Link 0=g16
 Input=hf_nh3_mp2_avtz_opt_freq.gjf
 Output=hf_nh3_mp2_avtz_opt_freq.log
 Initial command:
 /sw/contrib/gaussian/g16/A03/g16/l1.exe "/gscratch/scrubbed/gds001/Gau-6786.inp" -scrdir="/gscratch/scrubbed/gds001/"
 Entering Link 1 = /sw/contrib/gaussian/g16/A03/g16/l1.exe PID=      6787.
  
 Copyright (c) 1988,1990,1992,1993,1995,1998,2003,2009,2016,
            Gaussian, Inc.  All Rights Reserved.
  
 This is part of the Gaussian(R) 16 program.  It is based on
 the Gaussian(R) 09 system (copyright 2009, Gaussian, Inc.),
 the Gaussian(R) 03 system (copyright 2003, Gaussian, Inc.),
 the Gaussian(R) 98 system (copyright 1998, Gaussian, Inc.),
 the Gaussian(R) 94 system (copyright 1995, Gaussian, Inc.),
 the Gaussian 92(TM) system (copyright 1992, Gaussian, Inc.),
 the Gaussian 90(TM) system (copyright 1990, Gaussian, Inc.),
 the Gaussian 88(TM) system (copyright 1988, Gaussian, Inc.),
 the Gaussian 86(TM) system (copyright 1986, Carnegie Mellon
 University), and the Gaussian 82(TM) system (copyright 1983,
 Carnegie Mellon University). Gaussian is a federally registered
 trademark of Gaussian, Inc.
  
 This software contains proprietary and confidential information,
 including trade secrets, belonging to Gaussian, Inc.
  
 This software is provided under written license and may be
 used, copied, transmitted, or stored only in accord with that
 written license.
  
 The following legend is applicable only to US Government
 contracts under FAR:
  
                    RESTRICTED RIGHTS LEGEND
  
 Use, reproduction and disclosure by the US Government is
 subject to restrictions as set forth in subparagraphs (a)
 and (c) of the Commercial Computer Software - Restricted
 Rights clause in FAR 52.227-19.
  
 Gaussian, Inc.
 340 Quinnipiac St., Bldg. 40, Wallingford CT 06492
  
  
 ---------------------------------------------------------------
 Warning -- This program may not be used in any manner that
 competes with the business of Gaussian, Inc. or will provide
 assistance to any competitor of Gaussian, Inc.  The licensee
 of this program is prohibited from giving any competitor of
 Gaussian, Inc. access to this program.  By using this program,
 the user acknowledges that Gaussian, Inc. is engaged in the
 business of creating and licensing software in the field of
 computational chemistry and represents and warrants to the
 licensee that it is not a competitor of Gaussian, Inc. and that
 it will not use this program in any manner prohibited above.
 ---------------------------------------------------------------
  

 Cite this work as:
 Gaussian 16, Revision A.03,
 M. J. Frisch, G. W. Trucks, H. B. Schlegel, G. E. Scuseria, 
 M. A. Robb, J. R. Cheeseman, G. Scalmani, V. Barone, 
 G. A. Petersson, H. Nakatsuji, X. Li, M. Caricato, A. V. Marenich, 
 J. Bloino, B. G. Janesko, R. Gomperts, B. Mennucci, H. P. Hratchian, 
 J. V. Ortiz, A. F. Izmaylov, J. L. Sonnenberg, D. Williams-Young, 
 F. Ding, F. Lipparini, F. Egidi, J. Goings, B. Peng, A. Petrone, 
 T. Henderson, D. Ranasinghe, V. G. Zakrzewski, J. Gao, N. Rega, 
 G. Zheng, W. Liang, M. Hada, M. Ehara, K. Toyota, R. Fukuda, 
 J. Hasegawa, M. Ishida, T. Nakajima, Y. Honda, O. Kitao, H. Nakai, 
 T. Vreven, K. Throssell, J. A. Montgomery, Jr., J. E. Peralta, 
 F. Ogliaro, M. J. Bearpark, J. J. Heyd, E. N. Brothers, K. N. Kudin, 
 V. N. Staroverov, T. A. Keith, R. Kobayashi, J. Normand, 
 K. Raghavachari, A. P. Rendell, J. C. Burant, S. S. Iyengar, 
 J. Tomasi, M. Cossi, J. M. Millam, M. Klene, C. Adamo, R. Cammi, 
 J. W. Ochterski, R. L. Martin, K. Morokuma, O. Farkas, 
 J. B. Foresman, and D. J. Fox, Gaussian, Inc., Wallingford CT, 2016.
 
 ******************************************
 Gaussian 16:  ES64L-G16RevA.03 25-Dec-2016
                31-Mar-2023 
 ******************************************
 %nprocshared=28
 Will use up to   28 processors via shared memory.
 %mem=41GB
 ------------------------------------------------------------
 # mp2/aug-cc-pVTZ opt=(z-matrix,Tight,MaxCycles=100000) freq
 ------------------------------------------------------------
 1/6=100000,7=10,10=7,18=40,38=1/1,3;
 2/12=2,17=6,18=5,29=3,40=1/2;
 3/5=16,6=1,7=10,11=9,25=1,30=1,71=1/1,2,3;
 4//1;
 5/5=2,38=5/2;
 8/6=4,10=1/1;
 9/15=2,16=-3/6;
 10/5=1/2;
 6/7=2,8=2,9=2,10=2/1;
 7/12=2,29=1/1,2,3,16;
 1/6=100000,7=10,10=7,18=40/3(2);
 2/29=3/2;
 99//99;
 2/29=3/2;
 3/5=16,6=1,7=10,11=9,25=1,30=1,71=1/1,2,3;
 4/5=5,16=3,69=1/1;
 5/5=2,38=5/2;
 8/6=4,10=1/1;
 9/15=2,16=-3/6;
 10/5=1/2;
 7/12=2/1,2,3,16;
 1/6=100000,7=10,18=40/3(-8);
 2/29=3/2;
 6/7=2,8=2,9=2,10=2/1;
 99//99;
 ------------
 Optimization
 ------------
 Symbolic Z-matrix:
 Charge =  0 Multiplicity = 1
 F
 X                    1     1. 
 H                    1    Rah      2     90. 
 N                    1    Rab      2     90.      3     0.       0
 H                    4    R1       3    A1       2     0.       0
 H                    4    R1       3    A1       2     120.     0
 H                    4    R1       3    A1       2    -120.     0
       Variables:
  R1                    1.0125                   
  A1                  111.5608                   
  Rah                   0.9572                   
  Rab                   2.6361                   
 

 GradGradGradGradGradGradGradGradGradGradGradGradGradGradGradGradGradGrad
 Berny optimization.
 Initialization pass.
                       ----------------------------
                       !    Initial Parameters    !
                       ! (Angstroms and Degrees)  !
 ----------------------                            ----------------------
 !      Name          Value   Derivative information (Atomic Units)     !
 ------------------------------------------------------------------------
 !       R1          1.0125   estimate D2E/DX2                          !
 !       A1        111.5608   estimate D2E/DX2                          !
 !       Rah         0.9572   estimate D2E/DX2                          !
 !       Rab         2.6361   estimate D2E/DX2                          !
 ------------------------------------------------------------------------
 Trust Radius=3.00D-01 FncErr=1.00D-07 GrdErr=1.00D-07 EigMax=2.50D+02 EigMin=1.00D-04
 Number of steps in this run=    100 maximum allowed number of steps=    100.
 GradGradGradGradGradGradGradGradGradGradGradGradGradGradGradGradGradGrad

 ---------------------------------------------------------------------------------------------------
                            Z-MATRIX (ANGSTROMS AND DEGREES)
   CD    Cent   Atom    N1       Length/X        N2       Alpha/Y        N3        Beta/Z          J
 ---------------------------------------------------------------------------------------------------
      1      1  F 
      2         X        1   1.000000(     1)
      3      2  H        1   0.957200(     2)      2   90.000(     7)
      4      3  N        1   2.636100(     3)      2   90.000(     8)      3    0.000(    12)      0
      5      4  H        4   1.012500(     4)      3  111.561(     9)      2    0.000(    13)      0
      6      5  H        4   1.012500(     5)      3  111.561(    10)      2  120.000(    14)      0
      7      6  H        4   1.012500(     6)      3  111.561(    11)      2 -120.000(    15)      0
 ---------------------------------------------------------------------------------------------------
                         Z-Matrix orientation:                         
 ---------------------------------------------------------------------
 Center     Atomic      Atomic             Coordinates (Angstroms)
 Number     Number       Type             X           Y           Z
 ---------------------------------------------------------------------
      1          9           0        0.000000    0.000000    0.000000
      2         -1           0        0.000000    0.000000    1.000000
      3          1           0        0.957200    0.000000    0.000000
      4          7           0        2.636100    0.000000    0.000000
      5          1           0        3.008182    0.000000    0.941653
      6          1           0        3.008182   -0.815496   -0.470827
      7          1           0        3.008182    0.815496   -0.470827
 ---------------------------------------------------------------------
                    Distance matrix (angstroms):
                    1          2          3          4          5
     1  F    0.000000
     2  X    1.000000   0.000000
     3  H    0.957200   1.384280   0.000000
     4  N    2.636100   2.819401   1.678900   0.000000
     5  H    3.152121   3.008748   2.256820   1.012500   0.000000
     6  H    3.152121   3.446378   2.256820   1.012500   1.630992
     7  H    3.152121   3.446378   2.256820   1.012500   1.630992
                    6          7
     6  H    0.000000
     7  H    1.630992   0.000000
 Stoichiometry    FH4N
 Framework group  C3V[C3(NHF),3SGV(H)]
 Deg. of freedom     4
 Full point group                 C3V     NOp   6
 Largest Abelian subgroup         CS      NOp   2
 Largest concise Abelian subgroup CS      NOp   2
                         Standard orientation:                         
 ---------------------------------------------------------------------
 Center     Atomic      Atomic             Coordinates (Angstroms)
 Number     Number       Type             X           Y           Z
 ---------------------------------------------------------------------
      1          9           0       -0.000000   -0.000000    1.421722
      2          1           0       -0.000000   -0.000000    0.464522
      3          7           0        0.000000    0.000000   -1.214378
      4          1           0        0.000000    0.941653   -1.586460
      5          1           0        0.815496   -0.470827   -1.586460
      6          1           0       -0.815496   -0.470827   -1.586460
 ---------------------------------------------------------------------
 Rotational constants (GHZ):         188.5074727           7.5038587           7.5038587
 Standard basis: Aug-CC-pVTZ (5D, 7F)
 There are   135 symmetry adapted cartesian basis functions of A'  symmetry.
 There are    75 symmetry adapted cartesian basis functions of A"  symmetry.
 There are   115 symmetry adapted basis functions of A'  symmetry.
 There are    69 symmetry adapted basis functions of A"  symmetry.
   184 basis functions,   252 primitive gaussians,   210 cartesian basis functions
    10 alpha electrons       10 beta electrons
       nuclear repulsion energy        37.0137434712 Hartrees.
 NAtoms=    6 NActive=    6 NUniq=    4 SFac= 2.25D+00 NAtFMM=   60 NAOKFM=F Big=F
 Integral buffers will be    131072 words long.
 Raffenetti 1 integral format.
 Two-electron integral symmetry is turned on.
 One-electron integrals computed using PRISM.
 NBasis=   184 RedAO= T EigKep=  9.34D-05  NBF=   115    69
 NBsUse=   184 1.00D-06 EigRej= -1.00D+00 NBFU=   115    69
 ExpMin= 2.53D-02 ExpMax= 1.95D+04 ExpMxC= 6.65D+02 IAcc=3 IRadAn=         5 AccDes= 0.00D+00
 Harris functional with IExCor=  205 and IRadAn=       5 diagonalized for initial guess.
 HarFok:  IExCor=  205 AccDes= 0.00D+00 IRadAn=         5 IDoV= 1 UseB2=F ITyADJ=14
 ICtDFT=  3500011 ScaDFX=  1.000000  1.000000  1.000000  1.000000
 FoFCou: FMM=F IPFlag=           0 FMFlag=      100000 FMFlg1=           0
         NFxFlg=           0 DoJE=T BraDBF=F KetDBF=T FulRan=T
         wScrn=  0.000000 ICntrl=       500 IOpCl=  0 I1Cent=   200000004 NGrid=           0
         NMat0=    1 NMatS0=      1 NMatT0=    0 NMatD0=    1 NMtDS0=    0 NMtDT0=    0
 Petite list used in FoFCou.
 Initial guess orbital symmetries:
       Occupied  (A1) (A1) (A1) (A1) (A1) (E) (E) (E) (E) (A1)
       Virtual   (A1) (E) (E) (A1) (A1) (E) (E) (A1) (E) (E) (A1)
                 (E) (E) (A1) (E) (E) (A1) (A1) (A1) (A2) (E) (E)
                 (E) (E) (A1) (E) (E) (E) (E) (A1) (E) (E) (E)
                 (E) (A1) (A1) (A1) (E) (E) (E) (E) (A1) (A2) (E)
                 (E) (A1) (E) (E) (E) (E) (E) (E) (A1) (A2) (E)
                 (E) (A1) (E) (E) (E) (E) (A1) (E) (E) (A1) (A1)
                 (E) (E) (A1) (A1) (E) (E) (A2) (E) (E) (E) (E)
                 (A1) (E) (E) (A1) (E) (E) (E) (E) (A1) (A2) (E)
                 (E) (A1) (E) (E) (A1) (E) (E) (A2) (A1) (A1) (E)
                 (E) (A1) (E) (E) (A1) (A1) (E) (E) (E) (E) (E)
                 (E) (A1) (A2) (E) (E) (E) (E) (A2) (A1) (E) (E)
                 (A1) (E) (E) (E) (E) (E) (E) (A1) (A1) (E) (E)
                 (E) (E) (E) (E) (A1) (A2) (E) (E) (A1) (E) (E)
                 (A1) (A1) (E) (E) (A1) (E) (E) (E) (E) (A2) (A1)
                 (A1) (E) (E) (E) (E) (A1) (A2) (A1) (E) (E) (E)
                 (E) (E) (E) (E) (E) (A1) (A1) (A1) (A1)
 The electronic state of the initial guess is 1-A1.
 Keep R1 ints in memory in symmetry-blocked form, NReq=217645928.
 Requested convergence on RMS density matrix=1.00D-08 within 128 cycles.
 Requested convergence on MAX density matrix=1.00D-06.
 Requested convergence on             energy=1.00D-06.
 No special actions if energy rises.
 SCF Done:  E(RHF) =  -156.296336593     A.U. after   10 cycles
            NFock= 10  Conv=0.46D-08     -V/T= 2.0011
 ExpMin= 2.53D-02 ExpMax= 1.95D+04 ExpMxC= 6.65D+02 IAcc=3 IRadAn=         5 AccDes= 0.00D+00
 HarFok:  IExCor=  205 AccDes= 0.00D+00 IRadAn=         5 IDoV=-2 UseB2=F ITyADJ=14
 ICtDFT= 12500011 ScaDFX=  1.000000  1.000000  1.000000  1.000000
 Range of M.O.s used for correlation:     3   184
 NBasis=   184 NAE=    10 NBE=    10 NFC=     2 NFV=     0
 NROrb=    182 NOA=     8 NOB=     8 NVA=   174 NVB=   174

 **** Warning!!: The largest alpha MO coefficient is  0.32649111D+02

 Fully direct method using O(ONN) memory.
 JobTyp=1 Pass  1:  I=   3 to  10 NPSUse= 28 ParTrn=T ParDer=T DoDerP=T.
 Spin components of T(2) and E(2):
     alpha-alpha T2 =       0.1514075348D-01 E2=     -0.6360410885D-01
     alpha-beta  T2 =       0.8903195133D-01 E2=     -0.3984921213D+00
     beta-beta   T2 =       0.1514075348D-01 E2=     -0.6360410885D-01
 ANorm=    0.1057976114D+01
 E2 =    -0.5257003390D+00 EUMP2 =    -0.15682203693153D+03
          IDoAtm=111111
          Differentiating once with respect to electric field.
                with respect to dipole field.
          Differentiating once with respect to nuclear coordinates.
 Keep R1 ints in memory in symmetry-blocked form, NReq=217647168.
          There are     1 degrees of freedom in the 1st order CPHF.  IDoFFX=0 NUNeed=     1.
 LinEq1:  Iter=  0 NonCon=     1 RMS=3.24D-03 Max=3.32D-02 NDo=     1
 AX will form     1 AO Fock derivatives at one time.
 LinEq1:  Iter=  1 NonCon=     1 RMS=7.91D-04 Max=1.22D-02 NDo=     1
 LinEq1:  Iter=  2 NonCon=     1 RMS=2.74D-04 Max=3.36D-03 NDo=     1
 LinEq1:  Iter=  3 NonCon=     1 RMS=4.25D-05 Max=4.32D-04 NDo=     1
 LinEq1:  Iter=  4 NonCon=     1 RMS=1.80D-05 Max=2.11D-04 NDo=     1
 LinEq1:  Iter=  5 NonCon=     1 RMS=2.92D-06 Max=3.00D-05 NDo=     1
 LinEq1:  Iter=  6 NonCon=     1 RMS=5.70D-07 Max=6.60D-06 NDo=     1
 LinEq1:  Iter=  7 NonCon=     1 RMS=1.11D-07 Max=1.58D-06 NDo=     1
 LinEq1:  Iter=  8 NonCon=     1 RMS=1.51D-08 Max=1.88D-07 NDo=     1
 LinEq1:  Iter=  9 NonCon=     1 RMS=3.01D-09 Max=3.91D-08 NDo=     1
 LinEq1:  Iter= 10 NonCon=     1 RMS=5.04D-10 Max=4.62D-09 NDo=     1
 LinEq1:  Iter= 11 NonCon=     0 RMS=6.14D-11 Max=5.35D-10 NDo=     1
 Linear equations converged to 1.000D-10 1.000D-09 after    11 iterations.
 End of Minotr F.D. properties file   721 does not exist.
 End of Minotr F.D. properties file   722 does not exist.
 End of Minotr F.D. properties file   788 does not exist.

 **********************************************************************

            Population analysis using the SCF density.

 **********************************************************************

 Orbital symmetries:
       Occupied  (A1) (A1) (A1) (A1) (A1) (E) (E) (E) (E) (A1)
       Virtual   (A1) (E) (E) (A1) (A1) (A1) (E) (E) (E) (E) (E)
                 (E) (A1) (E) (E) (A1) (A2) (A1) (A1) (E) (E) (A1)
                 (E) (E) (E) (E) (A1) (E) (E) (A1) (E) (E) (A1)
                 (E) (E) (A1) (A1) (A2) (E) (E) (A1) (E) (E) (E)
                 (E) (E) (E) (A1) (A2) (E) (E) (E) (E) (E) (E)
                 (A1) (A1) (E) (E) (A1) (E) (E) (E) (E) (A1) (E)
                 (E) (A1) (A1) (A1) (E) (E) (A2) (E) (E) (E) (E)
                 (A1) (E) (E) (E) (E) (A1) (E) (E) (A2) (A1) (E)
                 (E) (E) (E) (A1) (A1) (E) (E) (A2) (A1) (A1) (E)
                 (E) (A1) (E) (E) (A1) (A1) (E) (E) (E) (E) (E)
                 (E) (A1) (E) (E) (A2) (A2) (E) (E) (A1) (E) (E)
                 (A1) (E) (E) (E) (E) (E) (E) (A1) (A1) (E) (E)
                 (A2) (E) (E) (E) (E) (E) (E) (A1) (A1) (E) (E)
                 (A1) (A1) (E) (E) (A1) (E) (E) (E) (E) (A2) (A1)
                 (A1) (E) (E) (E) (E) (A1) (A2) (A1) (E) (E) (E)
                 (E) (E) (E) (A1) (E) (E) (A1) (A1) (A1)
 The electronic state is 1-A1.
 Alpha  occ. eigenvalues --  -26.22367 -15.58824  -1.52507  -1.19257  -0.70955
 Alpha  occ. eigenvalues --   -0.67690  -0.67690  -0.58035  -0.58035  -0.48448
 Alpha virt. eigenvalues --    0.01890   0.04189   0.04189   0.06944   0.12819
 Alpha virt. eigenvalues --    0.13791   0.14915   0.14915   0.19653   0.19653
 Alpha virt. eigenvalues --    0.20746   0.20746   0.23666   0.27316   0.27316
 Alpha virt. eigenvalues --    0.27583   0.33977   0.35010   0.37453   0.37870
 Alpha virt. eigenvalues --    0.37870   0.39025   0.42024   0.42024   0.44187
 Alpha virt. eigenvalues --    0.44187   0.48541   0.54714   0.54714   0.58592
 Alpha virt. eigenvalues --    0.60893   0.60893   0.67742   0.70146   0.70146
 Alpha virt. eigenvalues --    0.70331   0.83592   0.87640   0.89729   0.89729
 Alpha virt. eigenvalues --    0.90250   0.90898   0.90898   0.95823   0.95823
 Alpha virt. eigenvalues --    0.99274   0.99274   0.99311   1.05184   1.06108
 Alpha virt. eigenvalues --    1.06108   1.11030   1.11030   1.16375   1.16375
 Alpha virt. eigenvalues --    1.16757   1.19967   1.25818   1.25818   1.26990
 Alpha virt. eigenvalues --    1.29339   1.29339   1.33150   1.33150   1.39978
 Alpha virt. eigenvalues --    1.41310   1.41310   1.49652   1.57239   1.62072
 Alpha virt. eigenvalues --    1.64107   1.64107   1.72428   1.79746   1.79746
 Alpha virt. eigenvalues --    1.81774   1.81774   1.94258   1.97723   1.97723
 Alpha virt. eigenvalues --    2.06628   2.06628   2.09479   2.26221   2.26221
 Alpha virt. eigenvalues --    2.30348   2.33107   2.40697   2.40697   2.43926
 Alpha virt. eigenvalues --    2.43926   2.45687   2.78358   2.88437   2.88437
 Alpha virt. eigenvalues --    2.98831   2.98886   3.06322   3.14611   3.14611
 Alpha virt. eigenvalues --    3.18275   3.29507   3.29507   3.43881   3.55518
 Alpha virt. eigenvalues --    3.81641   3.81641   3.86141   3.86141   3.98127
 Alpha virt. eigenvalues --    3.98127   4.13215   4.14407   4.14407   4.16830
 Alpha virt. eigenvalues --    4.17381   4.28237   4.28237   4.29550   4.33063
 Alpha virt. eigenvalues --    4.33063   4.44421   4.48491   4.48491   4.52597
 Alpha virt. eigenvalues --    4.52597   4.58408   4.58408   4.60514   4.71447
 Alpha virt. eigenvalues --    4.76812   4.76812   4.93395   4.93896   4.93896
 Alpha virt. eigenvalues --    5.00505   5.00505   5.05960   5.05960   5.10216
 Alpha virt. eigenvalues --    5.16867   5.62965   5.62965   5.68795   5.78354
 Alpha virt. eigenvalues --    5.86654   5.86654   6.09913   6.17455   6.17455
 Alpha virt. eigenvalues --    6.31381   6.31381   6.39732   6.59194   6.88494
 Alpha virt. eigenvalues --    6.96096   6.96096   7.75579   7.75579   7.92615
 Alpha virt. eigenvalues --    8.89384   8.89414   9.06525   9.06525   9.43544
 Alpha virt. eigenvalues --    9.43544   9.45122   9.45122   9.68606   9.72810
 Alpha virt. eigenvalues --    9.72810   9.98442  15.33261  17.86082
          Condensed to atoms (all electrons):
               1          2          3          4          5          6
     1  F    9.328905   0.194394  -0.057268  -0.000674  -0.000674  -0.000674
     2  H    0.194394   0.413001   0.033482   0.006093   0.006093   0.006093
     3  N   -0.057268   0.033482   6.037638   0.411427   0.411427   0.411427
     4  H   -0.000674   0.006093   0.411427   0.477323  -0.008967  -0.008967
     5  H   -0.000674   0.006093   0.411427  -0.008967   0.477323  -0.008967
     6  H   -0.000674   0.006093   0.411427  -0.008967  -0.008967   0.477323
 Mulliken charges:
               1
     1  F   -0.464009
     2  H    0.340844
     3  N   -0.248133
     4  H    0.123766
     5  H    0.123766
     6  H    0.123766
 Sum of Mulliken charges =  -0.00000
 Mulliken charges with hydrogens summed into heavy atoms:
               1
     1  F   -0.123165
     3  N    0.123165
 Electronic spatial extent (au):  <R**2>=            166.4767
 Charge=             -0.0000 electrons
 Dipole moment (field-independent basis, Debye):
    X=             -0.0000    Y=              0.0000    Z=             -4.7822  Tot=              4.7822
 Quadrupole moment (field-independent basis, Debye-Ang):
   XX=            -11.6648   YY=            -11.6648   ZZ=            -13.5450
   XY=             -0.0000   XZ=              0.0000   YZ=             -0.0000
 Traceless Quadrupole moment (field-independent basis, Debye-Ang):
   XX=              0.6267   YY=              0.6267   ZZ=             -1.2535
   XY=             -0.0000   XZ=              0.0000   YZ=             -0.0000
 Octapole moment (field-independent basis, Debye-Ang**2):
  XXX=             -0.0000  YYY=              1.0629  ZZZ=             -5.5464  XYY=              0.0000
  XXY=             -1.0629  XXZ=             -1.2606  XZZ=             -0.0000  YZZ=             -0.0000
  YYZ=             -1.2606  XYZ=              0.0000
 Hexadecapole moment (field-independent basis, Debye-Ang**3):
 XXXX=            -13.1025 YYYY=            -13.1025 ZZZZ=           -153.5762 XXXY=              0.0000
 XXXZ=             -0.0000 YYYX=             -0.0000 YYYZ=             -1.7956 ZZZX=              0.0000
 ZZZY=              0.0000 XXYY=             -4.3675 XXZZ=            -23.5708 YYZZ=            -23.5708
 XXYZ=              1.7956 YYXZ=             -0.0000 ZZXY=             -0.0000
 N-N= 3.701374347116D+01 E-N=-4.462609232439D+02  KE= 1.561169196706D+02
 Symmetry A'   KE= 1.473177980729D+02
 Symmetry A"   KE= 8.799121597746D+00
 Calling FoFJK, ICntrl=  10002127 FMM=F ISym2X=1 I1Cent= 0 IOpClX= 0 NMat=1 NMatS=1 NMatT=0.
 ***** Axes restored to original set *****
 -------------------------------------------------------------------
 Center     Atomic                   Forces (Hartrees/Bohr)
 Number     Number              X              Y              Z
 -------------------------------------------------------------------
      1        9           0.000026087    0.000000000   -0.000000000
      2        1          -0.000026251   -0.000000000    0.000000000
      3        7           0.000014337    0.000000000   -0.000000000
      4        1          -0.000004724   -0.000000000   -0.000013992
      5        1          -0.000004724    0.000012118    0.000006996
      6        1          -0.000004724   -0.000012118    0.000006996
 -------------------------------------------------------------------
 Cartesian Forces:  Max     0.000026251 RMS     0.000011129
 -----------------------------------------------------------------------------------------------
                       Internal Coordinate Forces (Hartree/Bohr or radian)
  Cent   Atom   N1       Length/X         N2         Alpha/Y        N3         Beta/Z          J
 -----------------------------------------------------------------------------------------------
      1  F 
         X        1   0.000000(     1)
      2  H        1  -0.000026(     2)      2  -0.000000(     7)
      3  N        1   0.000000(     3)      2   0.000000(     8)      3   0.000000(    12)     0
      4  H        4  -0.000015(     4)      3   0.000001(     9)      2   0.000000(    13)     0
      5  H        4  -0.000015(     5)      3   0.000001(    10)      2   0.000000(    14)     0
      6  H        4  -0.000015(     6)      3   0.000001(    11)      2  -0.000000(    15)     0
 -----------------------------------------------------------------------------------------------
 Internal  Forces:  Max     0.000026251 RMS     0.000009480

 GradGradGradGradGradGradGradGradGradGradGradGradGradGradGradGradGradGrad
 Berny optimization.
 Search for a local minimum.
 Step number   1 out of a maximum of  100
 All quantities printed in internal units (Hartrees-Bohrs-Radians)
 Second derivative matrix not updated -- first step.
 The second derivative matrix:
                          R1        A1        Rah       Rab
           R1           1.36669
           A1          -0.00000   1.04026
           Rah         -0.00000   0.00000   0.56080
           Rab          0.00000   0.00000   0.00000   0.02931
 ITU=  0
     Eigenvalues ---    0.02931   0.56080   1.04026   1.36669
 RFO step:  Lambda= 0.00000000D+00 EMin= 2.93104643D-02
 Linear search not attempted -- first point.
 Variable       Old X    -DE/DX   Delta X   Delta X   Delta X     New X
                                 (Linear)    (Quad)   (Total)
    R1        1.91335  -0.00004   0.00000  -0.00003  -0.00003   1.91332
    A1        1.94710   0.00000   0.00000   0.00000   0.00000   1.94711
   Rah        1.80885  -0.00003   0.00000  -0.00005  -0.00005   1.80880
   Rab        4.98151   0.00000   0.00000   0.00001   0.00001   4.98151
         Item               Value     Threshold  Converged?
 Maximum Force            0.000044     0.000015     NO 
 RMS     Force            0.000026     0.000010     NO 
 Maximum Displacement     0.000047     0.000060     YES
 RMS     Displacement     0.000029     0.000040     YES
 Predicted change in Energy=-1.340031D-09
 GradGradGradGradGradGradGradGradGradGradGradGradGradGradGradGradGradGrad

 ---------------------------------------------------------------------------------------------------
                            Z-MATRIX (ANGSTROMS AND DEGREES)
   CD    Cent   Atom    N1       Length/X        N2       Alpha/Y        N3        Beta/Z          J
 ---------------------------------------------------------------------------------------------------
      1      1  F 
      2         X        1   1.000000(     1)
      3      2  H        1   0.957175(     2)      2   90.000(     7)
      4      3  N        1   2.636103(     3)      2   90.000(     8)      3    0.000(    12)      0
      5      4  H        4   1.012483(     4)      3  111.561(     9)      2    0.000(    13)      0
      6      5  H        4   1.012483(     5)      3  111.561(    10)      2  120.000(    14)      0
      7      6  H        4   1.012483(     6)      3  111.561(    11)      2 -120.000(    15)      0
 ---------------------------------------------------------------------------------------------------
                         Z-Matrix orientation:                         
 ---------------------------------------------------------------------
 Center     Atomic      Atomic             Coordinates (Angstroms)
 Number     Number       Type             X           Y           Z
 ---------------------------------------------------------------------
      1          9           0        0.000000    0.000000    0.000000
      2         -1           0        0.000000    0.000000    1.000000
      3          1           0        0.957175    0.000000    0.000000
      4          7           0        2.636103    0.000000    0.000000
      5          1           0        3.008183    0.000000    0.941636
      6          1           0        3.008183   -0.815481   -0.470818
      7          1           0        3.008183    0.815481   -0.470818
 ---------------------------------------------------------------------
                    Distance matrix (angstroms):
                    1          2          3          4          5
     1  F    0.000000
     2  X    1.000000   0.000000
     3  H    0.957175   1.384263   0.000000
     4  N    2.636103   2.819404   1.678928   0.000000
     5  H    3.152117   3.008749   2.256836   1.012483   0.000000
     6  H    3.152117   3.446371   2.256836   1.012483   1.630961
     7  H    3.152117   3.446371   2.256836   1.012483   1.630961
                    6          7
     6  H    0.000000
     7  H    1.630961   0.000000
 Stoichiometry    FH4N
 Framework group  C3V[C3(NHF),3SGV(H)]
 Deg. of freedom     4
 Full point group                 C3V     NOp   6
 Largest Abelian subgroup         CS      NOp   2
 Largest concise Abelian subgroup CS      NOp   2
                         Standard orientation:                         
 ---------------------------------------------------------------------
 Center     Atomic      Atomic             Coordinates (Angstroms)
 Number     Number       Type             X           Y           Z
 ---------------------------------------------------------------------
      1          9           0        0.000000   -0.000000    1.421722
      2          1           0        0.000000   -0.000000    0.464547
      3          7           0       -0.000000    0.000000   -1.214381
      4          1           0       -0.000000    0.941636   -1.586460
      5          1           0        0.815481   -0.470818   -1.586460
      6          1           0       -0.815481   -0.470818   -1.586460
 ---------------------------------------------------------------------
 Rotational constants (GHZ):         188.5144678           7.5038492           7.5038492
 Standard basis: Aug-CC-pVTZ (5D, 7F)
 There are   135 symmetry adapted cartesian basis functions of A'  symmetry.
 There are    75 symmetry adapted cartesian basis functions of A"  symmetry.
 There are   115 symmetry adapted basis functions of A'  symmetry.
 There are    69 symmetry adapted basis functions of A"  symmetry.
   184 basis functions,   252 primitive gaussians,   210 cartesian basis functions
    10 alpha electrons       10 beta electrons
       nuclear repulsion energy        37.0140271570 Hartrees.
 NAtoms=    6 NActive=    6 NUniq=    4 SFac= 2.25D+00 NAtFMM=   60 NAOKFM=F Big=F
 Integral buffers will be    131072 words long.
 Raffenetti 1 integral format.
 Two-electron integral symmetry is turned on.
 One-electron integrals computed using PRISM.
 NBasis=   184 RedAO= T EigKep=  9.34D-05  NBF=   115    69
 NBsUse=   184 1.00D-06 EigRej= -1.00D+00 NBFU=   115    69
 Initial guess from the checkpoint file:  "/gscratch/scrubbed/gds001/Gau-6787.chk"
 B after Tr=     0.000000    0.000000    0.000000
         Rot=    1.000000    0.000000   -0.000000    0.000000 Ang=   0.00 deg.
 Initial guess orbital symmetries:
       Occupied  (A1) (A1) (A1) (A1) (A1) (E) (E) (E) (E) (A1)
       Virtual   (A1) (E) (E) (A1) (A1) (A1) (E) (E) (E) (E) (E)
                 (E) (A1) (E) (E) (A1) (A2) (A1) (A1) (E) (E) (A1)
                 (E) (E) (E) (E) (A1) (E) (E) (A1) (E) (E) (A1)
                 (E) (E) (A1) (A1) (A2) (E) (E) (A1) (E) (E) (E)
                 (E) (E) (E) (A1) (A2) (E) (E) (E) (E) (E) (E)
                 (A1) (A1) (E) (E) (A1) (E) (E) (E) (E) (A1) (E)
                 (E) (A1) (A1) (A1) (E) (E) (A2) (E) (E) (E) (E)
                 (A1) (E) (E) (E) (E) (A1) (E) (E) (A2) (A1) (E)
                 (E) (E) (E) (A1) (A1) (E) (E) (A2) (A1) (A1) (E)
                 (E) (A1) (E) (E) (A1) (A1) (E) (E) (E) (E) (E)
                 (E) (A1) (E) (E) (A2) (A2) (E) (E) (A1) (E) (E)
                 (A1) (E) (E) (E) (E) (E) (E) (A1) (A1) (E) (E)
                 (A2) (E) (E) (E) (E) (E) (E) (A1) (A1) (E) (E)
                 (A1) (A1) (E) (E) (A1) (E) (E) (E) (E) (A2) (A1)
                 (A1) (E) (E) (E) (E) (A1) (A2) (A1) (E) (E) (E)
                 (E) (E) (E) (A1) (E) (E) (A1) (A1) (A1)
 Keep R1 ints in memory in symmetry-blocked form, NReq=217645928.
 Requested convergence on RMS density matrix=1.00D-08 within 128 cycles.
 Requested convergence on MAX density matrix=1.00D-06.
 Requested convergence on             energy=1.00D-06.
 No special actions if energy rises.
 SCF Done:  E(RHF) =  -156.296339041     A.U. after    3 cycles
            NFock=  3  Conv=0.86D-08     -V/T= 2.0011
 ExpMin= 2.53D-02 ExpMax= 1.95D+04 ExpMxC= 6.65D+02 IAcc=3 IRadAn=         5 AccDes= 0.00D+00
 HarFok:  IExCor=  205 AccDes= 0.00D+00 IRadAn=         5 IDoV=-2 UseB2=F ITyADJ=14
 ICtDFT= 12500011 ScaDFX=  1.000000  1.000000  1.000000  1.000000
 Range of M.O.s used for correlation:     3   184
 NBasis=   184 NAE=    10 NBE=    10 NFC=     2 NFV=     0
 NROrb=    182 NOA=     8 NOB=     8 NVA=   174 NVB=   174

 **** Warning!!: The largest alpha MO coefficient is  0.32649477D+02

 Fully direct method using O(ONN) memory.
 JobTyp=1 Pass  1:  I=   3 to  10 NPSUse= 28 ParTrn=T ParDer=T DoDerP=T.
 Spin components of T(2) and E(2):
     alpha-alpha T2 =       0.1514050393D-01 E2=     -0.6360379757D-01
     alpha-beta  T2 =       0.8903034214D-01 E2=     -0.3984903149D+00
     beta-beta   T2 =       0.1514050393D-01 E2=     -0.6360379757D-01
 ANorm=    0.1057975118D+01
 E2 =    -0.5256979100D+00 EUMP2 =    -0.15682203695117D+03
          IDoAtm=111111
          Differentiating once with respect to electric field.
                with respect to dipole field.
          Differentiating once with respect to nuclear coordinates.
 Keep R1 ints in memory in symmetry-blocked form, NReq=217647168.
          There are     1 degrees of freedom in the 1st order CPHF.  IDoFFX=0 NUNeed=     1.
 LinEq1:  Iter=  0 NonCon=     1 RMS=3.24D-03 Max=3.32D-02 NDo=     1
 AX will form     1 AO Fock derivatives at one time.
 LinEq1:  Iter=  1 NonCon=     1 RMS=7.91D-04 Max=1.22D-02 NDo=     1
 LinEq1:  Iter=  2 NonCon=     1 RMS=2.74D-04 Max=3.36D-03 NDo=     1
 LinEq1:  Iter=  3 NonCon=     1 RMS=4.25D-05 Max=4.32D-04 NDo=     1
 LinEq1:  Iter=  4 NonCon=     1 RMS=1.80D-05 Max=2.11D-04 NDo=     1
 LinEq1:  Iter=  5 NonCon=     1 RMS=2.92D-06 Max=3.00D-05 NDo=     1
 LinEq1:  Iter=  6 NonCon=     1 RMS=5.70D-07 Max=6.59D-06 NDo=     1
 LinEq1:  Iter=  7 NonCon=     1 RMS=1.11D-07 Max=1.58D-06 NDo=     1
 LinEq1:  Iter=  8 NonCon=     1 RMS=1.51D-08 Max=1.88D-07 NDo=     1
 LinEq1:  Iter=  9 NonCon=     1 RMS=3.01D-09 Max=3.91D-08 NDo=     1
 LinEq1:  Iter= 10 NonCon=     1 RMS=5.04D-10 Max=4.62D-09 NDo=     1
 LinEq1:  Iter= 11 NonCon=     0 RMS=6.14D-11 Max=5.35D-10 NDo=     1
 Linear equations converged to 1.000D-10 1.000D-09 after    11 iterations.
 End of Minotr F.D. properties file   721 does not exist.
 End of Minotr F.D. properties file   722 does not exist.
 End of Minotr F.D. properties file   788 does not exist.
 Calling FoFJK, ICntrl=  10002127 FMM=F ISym2X=1 I1Cent= 0 IOpClX= 0 NMat=1 NMatS=1 NMatT=0.
 ***** Axes restored to original set *****
 -------------------------------------------------------------------
 Center     Atomic                   Forces (Hartrees/Bohr)
 Number     Number              X              Y              Z
 -------------------------------------------------------------------
      1        9           0.000006653    0.000000000    0.000000000
      2        1          -0.000007702   -0.000000000   -0.000000000
      3        7           0.000001755    0.000000000    0.000000000
      4        1          -0.000000235    0.000000000    0.000000380
      5        1          -0.000000235   -0.000000329   -0.000000190
      6        1          -0.000000235    0.000000329   -0.000000190
 -------------------------------------------------------------------
 Cartesian Forces:  Max     0.000007702 RMS     0.000002441
 -----------------------------------------------------------------------------------------------
                       Internal Coordinate Forces (Hartree/Bohr or radian)
  Cent   Atom   N1       Length/X         N2         Alpha/Y        N3         Beta/Z          J
 -----------------------------------------------------------------------------------------------
      1  F 
         X        1   0.000000(     1)
      2  H        1  -0.000008(     2)      2  -0.000000(     7)
      3  N        1   0.000001(     3)      2   0.000000(     8)      3  -0.000000(    12)     0
      4  H        4   0.000000(     4)      3  -0.000001(     9)      2  -0.000000(    13)     0
      5  H        4   0.000000(     5)      3  -0.000001(    10)      2   0.000000(    14)     0
      6  H        4   0.000000(     6)      3  -0.000001(    11)      2  -0.000000(    15)     0
 -----------------------------------------------------------------------------------------------
 Internal  Forces:  Max     0.000007702 RMS     0.000002034

 GradGradGradGradGradGradGradGradGradGradGradGradGradGradGradGradGradGrad
 Berny optimization.
 Search for a local minimum.
 Step number   2 out of a maximum of  100
 All quantities printed in internal units (Hartrees-Bohrs-Radians)
 Update second derivatives using D2CorN and points    1    2
 DE= -1.96D-08 DEPred=-1.34D-09 R= 1.46D+01
 Trust test= 1.46D+01 RLast= 5.73D-05 DXMaxT set to 3.00D-01
 The second derivative matrix:
                          R1        A1        Rah       Rab
           R1           1.37458
           A1          -0.01063   1.04285
           Rah         -0.03222  -0.00981   0.45115
           Rab          0.00448   0.00110   0.01403   0.02752
 ITU=  0  0
     Eigenvalues ---    0.02703   0.45033   1.04271   1.37603
 RFO step:  Lambda= 0.00000000D+00 EMin= 2.70330654D-02
 Quartic linear search produced a step of  0.00298.
 Variable       Old X    -DE/DX   Delta X   Delta X   Delta X     New X
                                 (Linear)    (Quad)   (Total)
    R1        1.91332   0.00000  -0.00000   0.00000   0.00000   1.91332
    A1        1.94711  -0.00000   0.00000  -0.00000  -0.00000   1.94710
   Rah        1.80880  -0.00001  -0.00000  -0.00001  -0.00001   1.80879
   Rab        4.98151   0.00000   0.00000   0.00002   0.00002   4.98153
         Item               Value     Threshold  Converged?
 Maximum Force            0.000008     0.000015     YES
 RMS     Force            0.000004     0.000010     YES
 Maximum Displacement     0.000021     0.000060     YES
 RMS     Displacement     0.000011     0.000040     YES
 Predicted change in Energy=-6.125853D-11
 Optimization completed.
    -- Stationary point found.
                       ----------------------------
                       !   Optimized Parameters   !
                       ! (Angstroms and Degrees)  !
 ----------------------                            ----------------------
 !      Name          Value   Derivative information (Atomic Units)     !
 ------------------------------------------------------------------------
 !       R1          1.0125   -DE/DX =    0.0                           !
 !       A1        111.561    -DE/DX =    0.0                           !
 !       Rah         0.9572   -DE/DX =    0.0                           !
 !       Rab         2.6361   -DE/DX =    0.0                           !
 ------------------------------------------------------------------------
 GradGradGradGradGradGradGradGradGradGradGradGradGradGradGradGradGradGrad

 ---------------------------------------------------------------------------------------------------
                            Z-MATRIX (ANGSTROMS AND DEGREES)
   CD    Cent   Atom    N1       Length/X        N2       Alpha/Y        N3        Beta/Z          J
 ---------------------------------------------------------------------------------------------------
      1      1  F 
      2         X        1   1.000000(     1)
      3      2  H        1   0.957175(     2)      2   90.000(     7)
      4      3  N        1   2.636103(     3)      2   90.000(     8)      3    0.000(    12)      0
      5      4  H        4   1.012483(     4)      3  111.561(     9)      2    0.000(    13)      0
      6      5  H        4   1.012483(     5)      3  111.561(    10)      2  120.000(    14)      0
      7      6  H        4   1.012483(     6)      3  111.561(    11)      2 -120.000(    15)      0
 ---------------------------------------------------------------------------------------------------
                         Z-Matrix orientation:                         
 ---------------------------------------------------------------------
 Center     Atomic      Atomic             Coordinates (Angstroms)
 Number     Number       Type             X           Y           Z
 ---------------------------------------------------------------------
      1          9           0        0.000000    0.000000    0.000000
      2         -1           0        0.000000    0.000000    1.000000
      3          1           0        0.957175    0.000000    0.000000
      4          7           0        2.636103    0.000000    0.000000
      5          1           0        3.008183    0.000000    0.941636
      6          1           0        3.008183   -0.815481   -0.470818
      7          1           0        3.008183    0.815481   -0.470818
 ---------------------------------------------------------------------
                    Distance matrix (angstroms):
                    1          2          3          4          5
     1  F    0.000000
     2  X    1.000000   0.000000
     3  H    0.957175   1.384263   0.000000
     4  N    2.636103   2.819404   1.678928   0.000000
     5  H    3.152117   3.008749   2.256836   1.012483   0.000000
     6  H    3.152117   3.446371   2.256836   1.012483   1.630961
     7  H    3.152117   3.446371   2.256836   1.012483   1.630961
                    6          7
     6  H    0.000000
     7  H    1.630961   0.000000
 Stoichiometry    FH4N
 Framework group  C3V[C3(NHF),3SGV(H)]
 Deg. of freedom     4
 Full point group                 C3V     NOp   6
 Largest Abelian subgroup         CS      NOp   2
 Largest concise Abelian subgroup CS      NOp   2
                         Standard orientation:                         
 ---------------------------------------------------------------------
 Center     Atomic      Atomic             Coordinates (Angstroms)
 Number     Number       Type             X           Y           Z
 ---------------------------------------------------------------------
      1          9           0        0.000000   -0.000000    1.421722
      2          1           0        0.000000   -0.000000    0.464547
      3          7           0       -0.000000    0.000000   -1.214381
      4          1           0       -0.000000    0.941636   -1.586460
      5          1           0        0.815481   -0.470818   -1.586460
      6          1           0       -0.815481   -0.470818   -1.586460
 ---------------------------------------------------------------------
 Rotational constants (GHZ):         188.5144678           7.5038492           7.5038492

 **********************************************************************

            Population analysis using the SCF density.

 **********************************************************************

 Orbital symmetries:
       Occupied  (A1) (A1) (A1) (A1) (A1) (E) (E) (E) (E) (A1)
       Virtual   (A1) (E) (E) (A1) (A1) (A1) (E) (E) (E) (E) (E)
                 (E) (A1) (E) (E) (A1) (A2) (A1) (A1) (E) (E) (A1)
                 (E) (E) (E) (E) (A1) (E) (E) (A1) (E) (E) (A1)
                 (E) (E) (A1) (A1) (A2) (E) (E) (A1) (E) (E) (E)
                 (E) (E) (E) (A1) (A2) (E) (E) (E) (E) (E) (E)
                 (A1) (A1) (E) (E) (A1) (E) (E) (E) (E) (A1) (E)
                 (E) (A1) (A1) (A1) (E) (E) (A2) (E) (E) (E) (E)
                 (A1) (E) (E) (E) (E) (A1) (E) (E) (A2) (A1) (E)
                 (E) (E) (E) (A1) (A1) (E) (E) (A2) (A1) (A1) (E)
                 (E) (A1) (E) (E) (A1) (A1) (E) (E) (E) (E) (E)
                 (E) (A1) (E) (E) (A2) (A2) (E) (E) (A1) (E) (E)
                 (A1) (E) (E) (E) (E) (E) (E) (A1) (A1) (E) (E)
                 (A2) (E) (E) (E) (E) (E) (E) (A1) (A1) (E) (E)
                 (A1) (A1) (E) (E) (A1) (E) (E) (E) (E) (A2) (A1)
                 (A1) (E) (E) (E) (E) (A1) (A2) (A1) (E) (E) (E)
                 (E) (E) (E) (A1) (E) (E) (A1) (A1) (A1)
 The electronic state is 1-A1.
 Alpha  occ. eigenvalues --  -26.22367 -15.58824  -1.52509  -1.19257  -0.70956
 Alpha  occ. eigenvalues --   -0.67690  -0.67690  -0.58036  -0.58036  -0.48448
 Alpha virt. eigenvalues --    0.01890   0.04189   0.04189   0.06944   0.12819
 Alpha virt. eigenvalues --    0.13791   0.14915   0.14915   0.19653   0.19653
 Alpha virt. eigenvalues --    0.20746   0.20746   0.23666   0.27316   0.27316
 Alpha virt. eigenvalues --    0.27583   0.33977   0.35010   0.37453   0.37870
 Alpha virt. eigenvalues --    0.37870   0.39025   0.42025   0.42025   0.44188
 Alpha virt. eigenvalues --    0.44188   0.48541   0.54714   0.54714   0.58592
 Alpha virt. eigenvalues --    0.60894   0.60894   0.67743   0.70146   0.70146
 Alpha virt. eigenvalues --    0.70330   0.83593   0.87640   0.89729   0.89729
 Alpha virt. eigenvalues --    0.90250   0.90898   0.90898   0.95823   0.95823
 Alpha virt. eigenvalues --    0.99275   0.99275   0.99312   1.05185   1.06109
 Alpha virt. eigenvalues --    1.06109   1.11030   1.11030   1.16375   1.16375
 Alpha virt. eigenvalues --    1.16757   1.19967   1.25819   1.25819   1.26989
 Alpha virt. eigenvalues --    1.29339   1.29339   1.33150   1.33150   1.39977
 Alpha virt. eigenvalues --    1.41311   1.41311   1.49653   1.57238   1.62072
 Alpha virt. eigenvalues --    1.64107   1.64107   1.72430   1.79747   1.79747
 Alpha virt. eigenvalues --    1.81775   1.81775   1.94259   1.97724   1.97724
 Alpha virt. eigenvalues --    2.06629   2.06629   2.09481   2.26219   2.26219
 Alpha virt. eigenvalues --    2.30348   2.33108   2.40698   2.40698   2.43927
 Alpha virt. eigenvalues --    2.43927   2.45687   2.78361   2.88436   2.88436
 Alpha virt. eigenvalues --    2.98830   2.98885   3.06321   3.14613   3.14613
 Alpha virt. eigenvalues --    3.18268   3.29507   3.29507   3.43881   3.55519
 Alpha virt. eigenvalues --    3.81641   3.81641   3.86141   3.86141   3.98129
 Alpha virt. eigenvalues --    3.98129   4.13217   4.14409   4.14409   4.16834
 Alpha virt. eigenvalues --    4.17383   4.28239   4.28239   4.29553   4.33064
 Alpha virt. eigenvalues --    4.33064   4.44424   4.48493   4.48493   4.52598
 Alpha virt. eigenvalues --    4.52598   4.58411   4.58411   4.60514   4.71452
 Alpha virt. eigenvalues --    4.76815   4.76815   4.93400   4.93899   4.93899
 Alpha virt. eigenvalues --    5.00504   5.00504   5.05960   5.05960   5.10221
 Alpha virt. eigenvalues --    5.16874   5.62965   5.62965   5.68800   5.78358
 Alpha virt. eigenvalues --    5.86661   5.86661   6.09916   6.17462   6.17462
 Alpha virt. eigenvalues --    6.31389   6.31389   6.39737   6.59198   6.88497
 Alpha virt. eigenvalues --    6.96104   6.96104   7.75584   7.75584   7.92612
 Alpha virt. eigenvalues --    8.89384   8.89413   9.06524   9.06524   9.43544
 Alpha virt. eigenvalues --    9.43544   9.45122   9.45122   9.68606   9.72810
 Alpha virt. eigenvalues --    9.72810   9.98443  15.33295  17.86138
          Condensed to atoms (all electrons):
               1          2          3          4          5          6
     1  F    9.328882   0.194390  -0.057266  -0.000674  -0.000674  -0.000674
     2  H    0.194390   0.413026   0.033474   0.006093   0.006093   0.006093
     3  N   -0.057266   0.033474   6.037621   0.411431   0.411431   0.411431
     4  H   -0.000674   0.006093   0.411431   0.477331  -0.008969  -0.008969
     5  H   -0.000674   0.006093   0.411431  -0.008969   0.477331  -0.008969
     6  H   -0.000674   0.006093   0.411431  -0.008969  -0.008969   0.477331
 Mulliken charges:
               1
     1  F   -0.463984
     2  H    0.340832
     3  N   -0.248121
     4  H    0.123757
     5  H    0.123757
     6  H    0.123757
 Sum of Mulliken charges =  -0.00000
 Mulliken charges with hydrogens summed into heavy atoms:
               1
     1  F   -0.123152
     3  N    0.123152
 Electronic spatial extent (au):  <R**2>=            166.4765
 Charge=             -0.0000 electrons
 Dipole moment (field-independent basis, Debye):
    X=             -0.0000    Y=              0.0000    Z=             -4.7820  Tot=              4.7820
 Quadrupole moment (field-independent basis, Debye-Ang):
   XX=            -11.6648   YY=            -11.6648   ZZ=            -13.5449
   XY=             -0.0000   XZ=              0.0000   YZ=              0.0000
 Traceless Quadrupole moment (field-independent basis, Debye-Ang):
   XX=              0.6267   YY=              0.6267   ZZ=             -1.2534
   XY=             -0.0000   XZ=              0.0000   YZ=              0.0000
 Octapole moment (field-independent basis, Debye-Ang**2):
  XXX=             -0.0000  YYY=              1.0628  ZZZ=             -5.5462  XYY=              0.0000
  XXY=             -1.0628  XXZ=             -1.2605  XZZ=             -0.0000  YZZ=             -0.0000
  YYZ=             -1.2605  XYZ=              0.0000
 Hexadecapole moment (field-independent basis, Debye-Ang**3):
 XXXX=            -13.1023 YYYY=            -13.1023 ZZZZ=           -153.5753 XXXY=              0.0000
 XXXZ=              0.0000 YYYX=             -0.0000 YYYZ=             -1.7955 ZZZX=              0.0000
 ZZZY=             -0.0000 XXYY=             -4.3674 XXZZ=            -23.5708 YYZZ=            -23.5708
 XXYZ=              1.7955 YYXZ=             -0.0000 ZZXY=             -0.0000
 N-N= 3.701402715697D+01 E-N=-4.462615434466D+02  KE= 1.561170520776D+02
 Symmetry A'   KE= 1.473178863793D+02
 Symmetry A"   KE= 8.799165698311D+00
 1\1\GINC-N2132\FOpt\RMP2-FC\Aug-CC-pVTZ\F1H4N1\GDS001\31-Mar-2023\1\\#
  mp2/aug-cc-pVTZ opt=(z-matrix,Tight,MaxCycles=100000) freq\\Optimizat
 ion\\0,1\F\X,1,1.\H,1,Rah,2,90.\N,1,Rab,2,90.,3,0.,0\H,4,R1,3,A1,2,0.,
 0\H,4,R1,3,A1,2,120.,0\H,4,R1,3,A1,2,-120.,0\\R1=1.01248287\A1=111.561
 03665\Rah=0.95717523\Rab=2.63610297\\Version=ES64L-G16RevA.03\State=1-
 A1\HF=-156.296339\MP2=-156.822037\RMSD=8.581e-09\RMSF=2.441e-06\Dipole
 =1.8237387,0.,0.\PG=C03V [C3(N1H1F1),3SGV(H1)]\\@


 EVERYTHING'S GOT A MORAL, IF ONLY YOU CAN FIND IT.

                                    -- LEWIS CARROL, ALICE IN WONDERLAND
 Job cpu time:       0 days  0 hours 10 minutes 54.3 seconds.
 Elapsed time:       0 days  0 hours  0 minutes 27.8 seconds.
 File lengths (MBytes):  RWF=     72 Int=      0 D2E=      0 Chk=      8 Scr=      8
 Normal termination of Gaussian 16 at Fri Mar 31 12:30:53 2023.
 Link1:  Proceeding to internal job step number  2.
 ----------------------------------------------------------------------
 #N Geom=AllCheck Guess=TCheck SCRF=Check GenChk RMP2(FC)/Aug-CC-pVTZ F
 req
 ----------------------------------------------------------------------
 1/6=100000,7=10,10=4,29=7,30=1,38=1,40=1/1,3;
 2/12=2,40=1/2;
 3/5=16,6=1,7=10,11=1,14=-4,25=1,30=1,70=2,71=2,116=1,140=1/1,2,3;
 4/5=101/1;
 5/5=2,38=6,98=1/2;
 8/6=3,8=1,10=1,19=11,30=-1/1;
 9/15=3,16=-3/6;
 11/6=1,8=1,15=11,17=12,24=-1,27=1,28=-2,29=300,32=6,42=3/1,2,10;
 10/6=2,21=1/2;
 8/6=4,8=1,10=1,19=11,30=-1/11,4;
 10/5=1,20=4/2;
 11/12=2,14=11,16=1,17=2,28=-2,42=3/2,10,12;
 6/7=2,8=2,9=2,10=2/1;
 7/8=1,10=1,12=2,25=1,44=2/1,2,3,16;
 1/6=100000,7=10,10=4,30=1/3;
 99//99;
 Structure from the checkpoint file:  "/gscratch/scrubbed/gds001/Gau-6787.chk"
 ------------
 Optimization
 ------------
 Charge =  0 Multiplicity = 1
 Z-Matrix found in chk file.
 F
 X,1,1.
 H,1,Rah,2,90.
 N,1,Rab,2,90.,3,0.,0
 H,4,R1,3,A1,2,0.,0
 H,4,R1,3,A1,2,120.,0
 H,4,R1,3,A1,2,-120.,0
      Variables:
 R1=1.01248287
 A1=111.56103665
 Rah=0.95717523
 Rab=2.63610297
 Recover connectivity data from disk.

 GradGradGradGradGradGradGradGradGradGradGradGradGradGradGradGradGradGrad
 Berny optimization.
 Initialization pass.
                       ----------------------------
                       !    Initial Parameters    !
                       ! (Angstroms and Degrees)  !
 ----------------------                            ----------------------
 !      Name          Value   Derivative information (Atomic Units)     !
 ------------------------------------------------------------------------
 !       R1          1.0125   calculate D2E/DX2 analytically            !
 !       A1        111.561    calculate D2E/DX2 analytically            !
 !       Rah         0.9572   calculate D2E/DX2 analytically            !
 !       Rab         2.6361   calculate D2E/DX2 analytically            !
 ------------------------------------------------------------------------
 Trust Radius=3.00D-01 FncErr=1.00D-07 GrdErr=1.00D-07 EigMax=2.50D+02 EigMin=1.00D-04
 Number of steps in this run=      2 maximum allowed number of steps=      2.
 GradGradGradGradGradGradGradGradGradGradGradGradGradGradGradGradGradGrad

                          Input orientation:                          
 ---------------------------------------------------------------------
 Center     Atomic      Atomic             Coordinates (Angstroms)
 Number     Number       Type             X           Y           Z
 ---------------------------------------------------------------------
      1          9           0        0.000000   -0.000000   -0.000000
      2          1           0        0.957175   -0.000000    0.000000
      3          7           0        2.636103    0.000000    0.000000
      4          1           0        3.008183    0.000000    0.941636
      5          1           0        3.008183   -0.815481   -0.470818
      6          1           0        3.008183    0.815481   -0.470818
 ---------------------------------------------------------------------
                    Distance matrix (angstroms):
                    1          2          3          4          5
     1  F    0.000000
     2  H    0.957175   0.000000
     3  N    2.636103   1.678928   0.000000
     4  H    3.152117   2.256836   1.012483   0.000000
     5  H    3.152117   2.256836   1.012483   1.630961   0.000000
     6  H    3.152117   2.256836   1.012483   1.630961   1.630961
                    6
     6  H    0.000000
 Stoichiometry    FH4N
 Framework group  C3V[C3(NHF),3SGV(H)]
 Deg. of freedom     4
 Full point group                 C3V     NOp   6
 Largest Abelian subgroup         CS      NOp   2
 Largest concise Abelian subgroup CS      NOp   2
                         Standard orientation:                         
 ---------------------------------------------------------------------
 Center     Atomic      Atomic             Coordinates (Angstroms)
 Number     Number       Type             X           Y           Z
 ---------------------------------------------------------------------
      1          9           0       -0.000000   -0.000000    1.421722
      2          1           0       -0.000000   -0.000000    0.464547
      3          7           0        0.000000    0.000000   -1.214381
      4          1           0        0.000000    0.941636   -1.586460
      5          1           0        0.815481   -0.470818   -1.586460
      6          1           0       -0.815481   -0.470818   -1.586460
 ---------------------------------------------------------------------
 Rotational constants (GHZ):         188.5144678           7.5038492           7.5038492
 Standard basis: Aug-CC-pVTZ (5D, 7F)
 There are   135 symmetry adapted cartesian basis functions of A'  symmetry.
 There are    75 symmetry adapted cartesian basis functions of A"  symmetry.
 There are   115 symmetry adapted basis functions of A'  symmetry.
 There are    69 symmetry adapted basis functions of A"  symmetry.
   184 basis functions,   252 primitive gaussians,   210 cartesian basis functions
    10 alpha electrons       10 beta electrons
       nuclear repulsion energy        37.0140271570 Hartrees.
 NAtoms=    6 NActive=    6 NUniq=    4 SFac= 2.25D+00 NAtFMM=   60 NAOKFM=F Big=F
 Integral buffers will be    131072 words long.
 Raffenetti 1 integral format.
 Two-electron integral symmetry is turned on.
 One-electron integrals computed using PRISM.
 NBasis=   184 RedAO= T EigKep=  9.34D-05  NBF=   115    69
 NBsUse=   184 1.00D-06 EigRej= -1.00D+00 NBFU=   115    69
 Initial guess from the checkpoint file:  "/gscratch/scrubbed/gds001/Gau-6787.chk"
 B after Tr=     0.000000    0.000000    0.000000
         Rot=    1.000000    0.000000    0.000000    0.000000 Ang=   0.00 deg.
 Initial guess orbital symmetries:
       Occupied  (A1) (A1) (A1) (A1) (A1) (E) (E) (E) (E) (A1)
       Virtual   (A1) (E) (E) (A1) (A1) (A1) (E) (E) (E) (E) (E)
                 (E) (A1) (E) (E) (A1) (A2) (A1) (A1) (E) (E) (A1)
                 (E) (E) (E) (E) (A1) (E) (E) (A1) (E) (E) (A1)
                 (E) (E) (A1) (A1) (A2) (E) (E) (A1) (E) (E) (E)
                 (E) (E) (E) (A1) (A2) (E) (E) (E) (E) (E) (E)
                 (A1) (A1) (E) (E) (A1) (E) (E) (E) (E) (A1) (E)
                 (E) (A1) (A1) (A1) (E) (E) (A2) (E) (E) (E) (E)
                 (A1) (E) (E) (E) (E) (A1) (E) (E) (A2) (A1) (E)
                 (E) (E) (E) (A1) (A1) (E) (E) (A2) (A1) (A1) (E)
                 (E) (A1) (E) (E) (A1) (A1) (E) (E) (E) (E) (E)
                 (E) (A1) (E) (E) (A2) (A2) (E) (E) (A1) (E) (E)
                 (A1) (E) (E) (E) (E) (E) (E) (A1) (A1) (E) (E)
                 (A2) (E) (E) (E) (E) (E) (E) (A1) (A1) (E) (E)
                 (A1) (A1) (E) (E) (A1) (E) (E) (E) (E) (A2) (A1)
                 (A1) (E) (E) (E) (E) (A1) (A2) (A1) (E) (E) (E)
                 (E) (E) (E) (A1) (E) (E) (A1) (A1) (A1)
 Keep R1 ints in memory in symmetry-blocked form, NReq=217645928.
 Requested convergence on RMS density matrix=1.00D-08 within 128 cycles.
 Requested convergence on MAX density matrix=1.00D-06.
 Requested convergence on             energy=1.00D-06.
 No special actions if energy rises.
 SCF Done:  E(RHF) =  -156.296339041     A.U. after    1 cycles
            NFock=  1  Conv=0.24D-08     -V/T= 2.0011
 ExpMin= 2.53D-02 ExpMax= 1.95D+04 ExpMxC= 6.65D+02 IAcc=3 IRadAn=         5 AccDes= 0.00D+00
 HarFok:  IExCor=  205 AccDes= 0.00D+00 IRadAn=         5 IDoV=-2 UseB2=F ITyADJ=14
 ICtDFT= 12500011 ScaDFX=  1.000000  1.000000  1.000000  1.000000
 Range of M.O.s used for correlation:     3   184
 NBasis=   184 NAE=    10 NBE=    10 NFC=     2 NFV=     0
 NROrb=    182 NOA=     8 NOB=     8 NVA=   174 NVB=   174

 **** Warning!!: The largest alpha MO coefficient is  0.32649475D+02

 Disk-based method using ON**2 memory for  8 occupieds at a time.
 Permanent disk used for amplitudes=     3704895 words.
 Estimated scratch disk usage=   104811512 words.
 Actual    scratch disk usage=   102714360 words.
 JobTyp=1 Pass  1:  I=   3 to  10 NPSUse= 28 ParTrn=T ParDer=T DoDerP=T.
 (rs|ai) integrals will be sorted in core.
 Spin components of T(2) and E(2):
     alpha-alpha T2 =       0.1514050433D-01 E2=     -0.6360379501D-01
     alpha-beta  T2 =       0.8903034631D-01 E2=     -0.3984903100D+00
     beta-beta   T2 =       0.1514050433D-01 E2=     -0.6360379501D-01
 ANorm=    0.1057975120D+01
 E2 =    -0.5256979000D+00 EUMP2 =    -0.15682203694116D+03
 G2DrvN: will do     7 centers at a time, making    1 passes.
 Calling FoFCou, ICntrl=  3107 FMM=F I1Cent=   0 AccDes= 0.00D+00.
 End of G2Drv F.D. properties file   721 does not exist.
 End of G2Drv F.D. properties file   722 does not exist.
 End of G2Drv F.D. properties file   788 does not exist.
          IDoAtm=111111
          Differentiating once with respect to electric field.
                with respect to dipole field.
          Differentiating once with respect to nuclear coordinates.
 Keep R1 ints in memory in symmetry-blocked form, NReq=217647168.
          There are    21 degrees of freedom in the 1st order CPHF.  IDoFFX=6 NUNeed=    21.
     18 vectors produced by pass  0 Test12= 8.29D-15 4.76D-09 XBig12= 4.07D+00 7.32D-01.
 AX will form    18 AO Fock derivatives at one time.
     18 vectors produced by pass  1 Test12= 8.29D-15 4.76D-09 XBig12= 1.72D-01 9.93D-02.
     18 vectors produced by pass  2 Test12= 8.29D-15 4.76D-09 XBig12= 6.32D-03 2.78D-02.
     18 vectors produced by pass  3 Test12= 8.29D-15 4.76D-09 XBig12= 6.96D-05 2.59D-03.
     18 vectors produced by pass  4 Test12= 8.29D-15 4.76D-09 XBig12= 8.16D-07 2.07D-04.
     18 vectors produced by pass  5 Test12= 8.29D-15 4.76D-09 XBig12= 6.18D-09 2.30D-05.
     15 vectors produced by pass  6 Test12= 8.29D-15 4.76D-09 XBig12= 2.87D-11 1.31D-06.
      4 vectors produced by pass  7 Test12= 8.29D-15 4.76D-09 XBig12= 1.24D-13 8.46D-08.
      1 vectors produced by pass  8 Test12= 8.29D-15 4.76D-09 XBig12= 5.53D-16 6.60D-09.
 InvSVY:  IOpt=1 It=  1 EMax= 2.22D-16
 Solved reduced A of dimension   128 with    21 vectors.
 End of Minotr F.D. properties file   721 does not exist.
 End of Minotr F.D. properties file   722 does not exist.
 End of Minotr F.D. properties file   788 does not exist.
 MDV=  5502926848.
 Form MO integral derivatives with frozen-active canonical formalism.
 Discarding MO integrals.
 Reordered first order wavefunction length =      6055200
 In DefCFB: NBatch=  1 ICI= 10 ICA=174 LFMax= 58
            Large arrays: LIAPS=   268934400 LIARS=   140679000 words.
 Semi-Direct transformation.
 ModeAB=           4 MOrb=            10 LenV=    5501941272
 LASXX=     29972970 LTotXX=    29972970 LenRXX=    60428170
 LTotAB=    30455200 MaxLAS=    33042720 LenRXY=           0
 NonZer=    90401140 LenScr=   135790592 LnRSAI=    33042720
 LnScr1=    49807360 LExtra=           0 Total=    279068842
 MaxDsk=          -1 SrtSym=           T ITran=            4
 JobTyp=0 Pass  1:  I=   1 to  10.
 (rs|ai) integrals will be sorted in core.
 Spin components of T(2) and E(2):
     alpha-alpha T2 =       0.1514050433D-01 E2=     -0.6360379501D-01
     alpha-beta  T2 =       0.8903034631D-01 E2=     -0.3984903100D+00
     beta-beta   T2 =       0.1514050433D-01 E2=     -0.6360379501D-01
 ANorm=    0.1496202764D+01
 E2 =    -0.5256979000D+00 EUMP2 =    -0.15682203694116D+03
          IDoAtm=111111
          Differentiating once with respect to electric field.
                with respect to dipole field.
          Differentiating once with respect to nuclear coordinates.
          There are     1 degrees of freedom in the 1st order CPHF.  IDoFFX=0 NUNeed=     1.
 LinEq1:  Iter=  0 NonCon=     1 RMS=3.24D-03 Max=3.32D-02 NDo=     1
 LinEq1:  Iter=  1 NonCon=     1 RMS=7.91D-04 Max=1.22D-02 NDo=     1
 LinEq1:  Iter=  2 NonCon=     1 RMS=2.74D-04 Max=3.36D-03 NDo=     1
 LinEq1:  Iter=  3 NonCon=     1 RMS=4.25D-05 Max=4.32D-04 NDo=     1
 LinEq1:  Iter=  4 NonCon=     1 RMS=1.80D-05 Max=2.11D-04 NDo=     1
 LinEq1:  Iter=  5 NonCon=     1 RMS=2.92D-06 Max=3.00D-05 NDo=     1
 LinEq1:  Iter=  6 NonCon=     1 RMS=5.70D-07 Max=6.59D-06 NDo=     1
 LinEq1:  Iter=  7 NonCon=     1 RMS=1.11D-07 Max=1.58D-06 NDo=     1
 LinEq1:  Iter=  8 NonCon=     1 RMS=1.51D-08 Max=1.88D-07 NDo=     1
 LinEq1:  Iter=  9 NonCon=     1 RMS=3.01D-09 Max=3.91D-08 NDo=     1
 LinEq1:  Iter= 10 NonCon=     1 RMS=5.04D-10 Max=4.62D-09 NDo=     1
 LinEq1:  Iter= 11 NonCon=     0 RMS=6.14D-11 Max=5.35D-10 NDo=     1
 Linear equations converged to 1.000D-10 1.000D-09 after    11 iterations.
 End of Minotr F.D. properties file   721 does not exist.
 End of Minotr F.D. properties file   722 does not exist.
 End of Minotr F.D. properties file   788 does not exist.
 Symmetrizing basis deriv contribution to polar:
 IMax=3 JMax=2 DiffMx= 0.00D+00
 G2DrvN: will do     7 centers at a time, making    1 passes.
 Calling FoFCou, ICntrl=  3107 FMM=F I1Cent=   0 AccDes= 0.00D+00.
 End of G2Drv F.D. properties file   721 does not exist.
 End of G2Drv F.D. properties file   722 does not exist.
 End of G2Drv F.D. properties file   788 does not exist.
 R2 and R3 integrals will be kept in memory, NReq=   495563040.
 DD1Dir will call FoFMem   1 times, MxPair=       110
 NAB=    55 NAA=     0 NBB=     0.
 Discarding MO integrals.

 **********************************************************************

            Population analysis using the SCF density.

 **********************************************************************

 Orbital symmetries:
       Occupied  (A1) (A1) (A1) (A1) (A1) (E) (E) (E) (E) (A1)
       Virtual   (A1) (E) (E) (A1) (A1) (A1) (E) (E) (E) (E) (E)
                 (E) (A1) (E) (E) (A1) (A2) (A1) (A1) (E) (E) (A1)
                 (E) (E) (E) (E) (A1) (E) (E) (A1) (E) (E) (A1)
                 (E) (E) (A1) (A1) (A2) (E) (E) (A1) (E) (E) (E)
                 (E) (E) (E) (A1) (A2) (E) (E) (E) (E) (E) (E)
                 (A1) (A1) (E) (E) (A1) (E) (E) (E) (E) (A1) (E)
                 (E) (A1) (A1) (A1) (E) (E) (A2) (E) (E) (E) (E)
                 (A1) (E) (E) (E) (E) (A1) (E) (E) (A2) (A1) (E)
                 (E) (E) (E) (A1) (A1) (E) (E) (A2) (A1) (A1) (E)
                 (E) (A1) (E) (E) (A1) (A1) (E) (E) (E) (E) (E)
                 (E) (A1) (E) (E) (A2) (A2) (E) (E) (A1) (E) (E)
                 (A1) (E) (E) (E) (E) (E) (E) (A1) (A1) (E) (E)
                 (A2) (E) (E) (E) (E) (E) (E) (A1) (A1) (E) (E)
                 (A1) (A1) (E) (E) (A1) (E) (E) (E) (E) (A2) (A1)
                 (A1) (E) (E) (E) (E) (A1) (A2) (A1) (E) (E) (E)
                 (E) (E) (E) (A1) (E) (E) (A1) (A1) (A1)
 The electronic state is 1-A1.
 Alpha  occ. eigenvalues --  -26.22367 -15.58824  -1.52509  -1.19257  -0.70956
 Alpha  occ. eigenvalues --   -0.67690  -0.67690  -0.58036  -0.58036  -0.48448
 Alpha virt. eigenvalues --    0.01890   0.04189   0.04189   0.06944   0.12819
 Alpha virt. eigenvalues --    0.13791   0.14915   0.14915   0.19653   0.19653
 Alpha virt. eigenvalues --    0.20746   0.20746   0.23666   0.27316   0.27316
 Alpha virt. eigenvalues --    0.27583   0.33977   0.35010   0.37453   0.37870
 Alpha virt. eigenvalues --    0.37870   0.39025   0.42025   0.42025   0.44188
 Alpha virt. eigenvalues --    0.44188   0.48541   0.54714   0.54714   0.58592
 Alpha virt. eigenvalues --    0.60894   0.60894   0.67743   0.70146   0.70146
 Alpha virt. eigenvalues --    0.70330   0.83593   0.87640   0.89729   0.89729
 Alpha virt. eigenvalues --    0.90250   0.90898   0.90898   0.95823   0.95823
 Alpha virt. eigenvalues --    0.99275   0.99275   0.99312   1.05185   1.06109
 Alpha virt. eigenvalues --    1.06109   1.11030   1.11030   1.16375   1.16375
 Alpha virt. eigenvalues --    1.16757   1.19967   1.25819   1.25819   1.26989
 Alpha virt. eigenvalues --    1.29339   1.29339   1.33150   1.33150   1.39977
 Alpha virt. eigenvalues --    1.41311   1.41311   1.49653   1.57238   1.62072
 Alpha virt. eigenvalues --    1.64107   1.64107   1.72430   1.79747   1.79747
 Alpha virt. eigenvalues --    1.81775   1.81775   1.94259   1.97724   1.97724
 Alpha virt. eigenvalues --    2.06629   2.06629   2.09481   2.26219   2.26219
 Alpha virt. eigenvalues --    2.30348   2.33108   2.40698   2.40698   2.43927
 Alpha virt. eigenvalues --    2.43927   2.45687   2.78361   2.88436   2.88436
 Alpha virt. eigenvalues --    2.98830   2.98885   3.06321   3.14613   3.14613
 Alpha virt. eigenvalues --    3.18268   3.29507   3.29507   3.43881   3.55519
 Alpha virt. eigenvalues --    3.81641   3.81641   3.86141   3.86141   3.98129
 Alpha virt. eigenvalues --    3.98129   4.13217   4.14409   4.14409   4.16834
 Alpha virt. eigenvalues --    4.17383   4.28239   4.28239   4.29553   4.33064
 Alpha virt. eigenvalues --    4.33064   4.44424   4.48493   4.48493   4.52598
 Alpha virt. eigenvalues --    4.52598   4.58411   4.58411   4.60514   4.71452
 Alpha virt. eigenvalues --    4.76815   4.76815   4.93400   4.93899   4.93899
 Alpha virt. eigenvalues --    5.00504   5.00504   5.05960   5.05960   5.10221
 Alpha virt. eigenvalues --    5.16874   5.62965   5.62965   5.68800   5.78358
 Alpha virt. eigenvalues --    5.86661   5.86661   6.09916   6.17462   6.17462
 Alpha virt. eigenvalues --    6.31389   6.31389   6.39737   6.59198   6.88497
 Alpha virt. eigenvalues --    6.96104   6.96104   7.75584   7.75584   7.92612
 Alpha virt. eigenvalues --    8.89384   8.89413   9.06524   9.06524   9.43544
 Alpha virt. eigenvalues --    9.43544   9.45122   9.45122   9.68606   9.72810
 Alpha virt. eigenvalues --    9.72810   9.98443  15.33295  17.86138
          Condensed to atoms (all electrons):
               1          2          3          4          5          6
     1  F    9.328882   0.194390  -0.057266  -0.000674  -0.000674  -0.000674
     2  H    0.194390   0.413026   0.033474   0.006093   0.006093   0.006093
     3  N   -0.057266   0.033474   6.037620   0.411431   0.411431   0.411431
     4  H   -0.000674   0.006093   0.411431   0.477331  -0.008969  -0.008969
     5  H   -0.000674   0.006093   0.411431  -0.008969   0.477331  -0.008969
     6  H   -0.000674   0.006093   0.411431  -0.008969  -0.008969   0.477331
 Mulliken charges:
               1
     1  F   -0.463983
     2  H    0.340832
     3  N   -0.248120
     4  H    0.123757
     5  H    0.123757
     6  H    0.123757
 Sum of Mulliken charges =  -0.00000
 Mulliken charges with hydrogens summed into heavy atoms:
               1
     1  F   -0.123151
     3  N    0.123151
 APT charges:
               1
     1  F   -0.628350
     2  H    0.602245
     3  N   -0.490371
     4  H    0.172159
     5  H    0.172159
     6  H    0.172159
 Sum of APT charges =  -0.00000
 APT charges with hydrogens summed into heavy atoms:
               1
     1  F   -0.026105
     3  N    0.026105
 Electronic spatial extent (au):  <R**2>=            166.4765
 Charge=             -0.0000 electrons
 Dipole moment (field-independent basis, Debye):
    X=             -0.0000    Y=             -0.0000    Z=             -4.7820  Tot=              4.7820
 Quadrupole moment (field-independent basis, Debye-Ang):
   XX=            -11.6648   YY=            -11.6648   ZZ=            -13.5449
   XY=             -0.0000   XZ=              0.0000   YZ=              0.0000
 Traceless Quadrupole moment (field-independent basis, Debye-Ang):
   XX=              0.6267   YY=              0.6267   ZZ=             -1.2534
   XY=             -0.0000   XZ=              0.0000   YZ=              0.0000
 Octapole moment (field-independent basis, Debye-Ang**2):
  XXX=             -0.0000  YYY=              1.0628  ZZZ=             -5.5462  XYY=              0.0000
  XXY=             -1.0628  XXZ=             -1.2605  XZZ=             -0.0000  YZZ=             -0.0000
  YYZ=             -1.2605  XYZ=              0.0000
 Hexadecapole moment (field-independent basis, Debye-Ang**3):
 XXXX=            -13.1023 YYYY=            -13.1023 ZZZZ=           -153.5754 XXXY=              0.0000
 XXXZ=              0.0000 YYYX=             -0.0000 YYYZ=             -1.7955 ZZZX=              0.0000
 ZZZY=              0.0000 XXYY=             -4.3674 XXZZ=            -23.5708 YYZZ=            -23.5708
 XXYZ=              1.7955 YYXZ=             -0.0000 ZZXY=             -0.0000
 N-N= 3.701402715697D+01 E-N=-4.462615370233D+02  KE= 1.561170487113D+02
 Symmetry A'   KE= 1.473178834552D+02
 Symmetry A"   KE= 8.799165256069D+00
  Exact polarizability:  16.827  -0.000  16.827  -0.000  -0.000  23.547
 Approx polarizability:  13.703  -0.000  13.703  -0.000   0.000  15.495
 Calling FoFJK, ICntrl=  10100127 FMM=F ISym2X=1 I1Cent= 0 IOpClX= 0 NMat=1 NMatS=1 NMatT=0.
 Full mass-weighted force constant matrix:
 Low frequencies ---   -2.2997    0.0004    0.0016    0.0018    0.9514    0.9516
 Low frequencies ---  267.5952  267.5953  276.0415
 Diagonal vibrational polarizability:
        6.7850620       6.7850648      10.1619652
 Harmonic frequencies (cm**-1), IR intensities (KM/Mole), Raman scattering
 activities (A**4/AMU), depolarization ratios for plane and unpolarized
 incident light, reduced masses (AMU), force constants (mDyne/A),
 and normal coordinates:
                      1                      2                      3
                      E                      E                     A1
 Frequencies --    267.5952               267.5953               276.0415
 Red. masses --      1.0981                 1.0981                 5.2835
 Frc consts  --      0.0463                 0.0463                 0.2372
 IR Inten    --      9.8042                 9.8042                 8.8302
  Atom  AN      X      Y      Z        X      Y      Z        X      Y      Z
     1   9    -0.00   0.04  -0.00    -0.04  -0.00  -0.00     0.00  -0.00  -0.35
     2   1     0.00  -0.32  -0.00     0.32   0.00  -0.00    -0.00   0.00  -0.39
     3   7     0.00  -0.07   0.00     0.07   0.00   0.00    -0.00   0.00   0.40
     4   1    -0.00   0.21   0.71    -0.22  -0.00  -0.00     0.00   0.01   0.43
     5   1     0.00   0.22  -0.35    -0.21  -0.00  -0.61     0.01  -0.00   0.43
     6   1    -0.00   0.22  -0.35    -0.21   0.00   0.61    -0.01  -0.00   0.43
                      4                      5                      6
                      E                      E                     A1
 Frequencies --    993.5784               993.5784              1137.2189
 Red. masses --      1.0492                 1.0492                 1.1963
 Frc consts  --      0.6102                 0.6102                 0.9115
 IR Inten    --    105.5995               105.5995               150.9534
  Atom  AN      X      Y      Z        X      Y      Z        X      Y      Z
     1   9    -0.02   0.00  -0.00    -0.00  -0.02  -0.00    -0.00   0.00   0.00
     2   1     0.96  -0.00  -0.00     0.00   0.96   0.00     0.00  -0.00  -0.01
     3   7    -0.05   0.00   0.00    -0.00  -0.05  -0.00    -0.00   0.00  -0.12
     4   1     0.08  -0.00  -0.00     0.00   0.04   0.22     0.00   0.21   0.53
     5   1     0.05   0.02   0.19     0.02   0.07  -0.11     0.18  -0.11   0.53
     6   1     0.05  -0.02  -0.19    -0.02   0.07  -0.11    -0.18  -0.11   0.53
                      7                      8                      9
                      E                      E                     A1
 Frequencies --   1669.1509              1669.1509              3337.7646
 Red. masses --      1.0617                 1.0617                 1.0638
 Frc consts  --      1.7428                 1.7428                 6.9830
 IR Inten    --     17.6862                17.6862              1609.3512
  Atom  AN      X      Y      Z        X      Y      Z        X      Y      Z
     1   9     0.00  -0.00  -0.00     0.00   0.00  -0.00    -0.00   0.00  -0.06
     2   1    -0.04   0.00   0.00    -0.00  -0.04   0.00     0.00  -0.00   0.99
     3   7    -0.06   0.00  -0.00    -0.00  -0.06  -0.00    -0.00   0.00  -0.00
     4   1     0.76   0.00   0.00     0.00  -0.14  -0.26    -0.00  -0.04   0.02
     5   1     0.08   0.39  -0.23     0.39   0.53   0.13    -0.04   0.02   0.02
     6   1     0.08  -0.39   0.23    -0.39   0.53   0.13     0.04   0.02   0.02
                     10                     11                     12
                     A1                      E                      E
 Frequencies --   3503.7675              3645.4687              3645.4687
 Red. masses --      1.0272                 1.0897                 1.0897
 Frc consts  --      7.4296                 8.5325                 8.5325
 IR Inten    --      6.7249                25.1805                25.1805
  Atom  AN      X      Y      Z        X      Y      Z        X      Y      Z
     1   9    -0.00  -0.00  -0.00     0.00  -0.00   0.00     0.00   0.00   0.00
     2   1    -0.00  -0.00   0.08    -0.00   0.00  -0.00    -0.00  -0.00  -0.00
     3   7    -0.00  -0.00   0.04    -0.08   0.00  -0.00    -0.00  -0.08  -0.00
     4   1     0.00   0.55  -0.18    -0.02  -0.00   0.00    -0.00   0.76  -0.29
     5   1     0.47  -0.27  -0.18     0.56  -0.34  -0.25    -0.34   0.17   0.15
     6   1    -0.47  -0.27  -0.18     0.56   0.34   0.25     0.34   0.17   0.15

 -------------------
 - Thermochemistry -
 -------------------
 Temperature   298.150 Kelvin.  Pressure   1.00000 Atm.
 Atom     1 has atomic number  9 and mass  18.99840
 Atom     2 has atomic number  1 and mass   1.00783
 Atom     3 has atomic number  7 and mass  14.00307
 Atom     4 has atomic number  1 and mass   1.00783
 Atom     5 has atomic number  1 and mass   1.00783
 Atom     6 has atomic number  1 and mass   1.00783
 Molecular mass:    37.03278 amu.
 Principal axes and moments of inertia in atomic units:
                           1         2         3
     Eigenvalues --     9.57349 240.50873 240.50873
           X            0.00000   0.58207   0.81314
           Y            0.00000   0.81314  -0.58207
           Z            1.00000  -0.00000  -0.00000
 This molecule is a prolate symmetric top.
 Rotational symmetry number  3.
 Rotational temperatures (Kelvin)      9.04727     0.36013     0.36013
 Rotational constants (GHZ):         188.51447     7.50385     7.50385
 Zero-point vibrational energy     128038.6 (Joules/Mol)
                                   30.60196 (Kcal/Mol)
 Warning -- explicit consideration of   3 degrees of freedom as
           vibrations may cause significant error
 Vibrational temperatures:    385.01   385.01   397.16  1429.54  1429.54
          (Kelvin)           1636.20  2401.54  2401.54  4802.30  5041.14
                             5245.02  5245.02
 
 Zero-point correction=                           0.048767 (Hartree/Particle)
 Thermal correction to Energy=                    0.053077
 Thermal correction to Enthalpy=                  0.054021
 Thermal correction to Gibbs Free Energy=         0.025250
 Sum of electronic and zero-point Energies=           -156.773270
 Sum of electronic and thermal Energies=              -156.768960
 Sum of electronic and thermal Enthalpies=            -156.768016
 Sum of electronic and thermal Free Energies=         -156.796787
 
                     E (Thermal)             CV                S
                      KCal/Mol        Cal/Mol-Kelvin    Cal/Mol-Kelvin
 Total                   33.306             12.245             60.555
 Electronic               0.000              0.000              0.000
 Translational            0.889              2.981             36.757
 Rotational               0.889              2.981             18.760
 Vibrational             31.529              6.283              5.038
 Vibration     1          0.673              1.733              1.612
 Vibration     2          0.673              1.733              1.612
 Vibration     3          0.678              1.718              1.558
                       Q            Log10(Q)             Ln(Q)
 Total Bot       0.243172D-11        -11.614086        -26.742421
 Total V=0       0.656605D+11         10.817304         24.907764
 Vib (Bot)       0.977666D-22        -22.009809        -50.679459
 Vib (Bot)    1  0.723097D+00         -0.140803         -0.324212
 Vib (Bot)    2  0.723097D+00         -0.140804         -0.324212
 Vib (Bot)    3  0.697941D+00         -0.156181         -0.359620
 Vib (V=0)       0.263986D+01          0.421581          0.970726
 Vib (V=0)    1  0.137913D+01          0.139605          0.321453
 Vib (V=0)    2  0.137913D+01          0.139605          0.321453
 Vib (V=0)    3  0.135856D+01          0.133078          0.306424
 Electronic      0.100000D+01          0.000000          0.000000
 Translational   0.885795D+07          6.947333         15.996826
 Rotational      0.280796D+04          3.448390          7.940212
 ***** Axes restored to original set *****
 -------------------------------------------------------------------
 Center     Atomic                   Forces (Hartrees/Bohr)
 Number     Number              X              Y              Z
 -------------------------------------------------------------------
      1        9           0.000006693   -0.000000000   -0.000000000
      2        1          -0.000007759   -0.000000000    0.000000000
      3        7           0.000001874    0.000000000   -0.000000000
      4        1          -0.000000269   -0.000000000    0.000000311
      5        1          -0.000000269   -0.000000269   -0.000000155
      6        1          -0.000000269    0.000000269   -0.000000155
 -------------------------------------------------------------------
 Cartesian Forces:  Max     0.000007759 RMS     0.000002461
 -----------------------------------------------------------------------------------------------
                       Internal Coordinate Forces (Hartree/Bohr or radian)
  Cent   Atom   N1       Length/X         N2         Alpha/Y        N3         Beta/Z          J
 -----------------------------------------------------------------------------------------------
      1  F 
         X        1   0.000000(     1)
      2  H        1  -0.000008(     2)      2  -0.000000(     7)
      3  N        1   0.000001(     3)      2  -0.000000(     8)      3  -0.000000(    12)     0
      4  H        4   0.000000(     4)      3  -0.000001(     9)      2   0.000000(    13)     0
      5  H        4   0.000000(     5)      3  -0.000001(    10)      2  -0.000000(    14)     0
      6  H        4   0.000000(     6)      3  -0.000001(    11)      2   0.000000(    15)     0
 -----------------------------------------------------------------------------------------------
 Internal  Forces:  Max     0.000007759 RMS     0.000002048

 GradGradGradGradGradGradGradGradGradGradGradGradGradGradGradGradGradGrad
 Berny optimization.
 Search for a local minimum.
 Step number   1 out of a maximum of    2
 All quantities printed in internal units (Hartrees-Bohrs-Radians)
 Second derivative matrix not updated -- analytic derivatives used.
 The second derivative matrix:
                          R1        A1        Rah       Rab
           R1           1.37028
           A1          -0.16854   0.47480
           Rah         -0.00441   0.02066   0.40135
           Rab          0.00206   0.00023   0.02148   0.02803
 ITU=  0
     Eigenvalues ---    0.02680   0.39478   0.45187   1.40101
 Angle between quadratic step and forces=  60.53 degrees.
 Linear search not attempted -- first point.
 Variable       Old X    -DE/DX   Delta X   Delta X   Delta X     New X
                                 (Linear)    (Quad)   (Total)
    R1        1.91332   0.00000   0.00000  -0.00000  -0.00000   1.91332
    A1        1.94711  -0.00000   0.00000  -0.00000  -0.00000   1.94710
   Rah        1.80880  -0.00001   0.00000  -0.00002  -0.00002   1.80878
   Rab        4.98151   0.00000   0.00000   0.00005   0.00005   4.98157
         Item               Value     Threshold  Converged?
 Maximum Force            0.000008     0.000015     YES
 RMS     Force            0.000004     0.000010     YES
 Maximum Displacement     0.000055     0.000060     YES
 RMS     Displacement     0.000030     0.000040     YES
 Predicted change in Energy=-1.186657D-10
 Optimization completed.
    -- Stationary point found.
                       ----------------------------
                       !   Optimized Parameters   !
                       ! (Angstroms and Degrees)  !
 ----------------------                            ----------------------
 !      Name          Value   Derivative information (Atomic Units)     !
 ------------------------------------------------------------------------
 !       R1          1.0125   -DE/DX =    0.0                           !
 !       A1        111.561    -DE/DX =    0.0                           !
 !       Rah         0.9572   -DE/DX =    0.0                           !
 !       Rab         2.6361   -DE/DX =    0.0                           !
 ------------------------------------------------------------------------
 GradGradGradGradGradGradGradGradGradGradGradGradGradGradGradGradGradGrad


 ----------------------------------------------------------------------

 Electric dipole moment (input orientation):
 (Debye = 10**-18 statcoulomb cm , SI units = C m)
                  (au)            (Debye)         (10**-30 SI)
   Tot        0.182374D+01      0.463548D+01      0.154623D+02
   x          0.182374D+01      0.463548D+01      0.154623D+02
   y          0.000000D+00      0.000000D+00      0.000000D+00
   z          0.000000D+00      0.000000D+00      0.000000D+00

 Dipole polarizability, Alpha (input orientation).
 (esu units = cm**3 , SI units = C**2 m**2 J**-1)
 Alpha(0;0):
               (au)            (10**-24 esu)      (10**-40 SI)
   iso        0.190673D+02      0.282549D+01      0.314378D+01
   aniso      0.671998D+01      0.995798D+00      0.110798D+01
   xx         0.235473D+02      0.348935D+01      0.388243D+01
   yx         0.000000D+00      0.000000D+00      0.000000D+00
   yy         0.168273D+02      0.249355D+01      0.277445D+01
   zx         0.000000D+00      0.000000D+00      0.000000D+00
   zy         0.000000D+00      0.000000D+00      0.000000D+00
   zz         0.168273D+02      0.249355D+01      0.277445D+01

 ----------------------------------------------------------------------

 Dipole orientation:
     9         -0.00000000         -0.00000000         -0.00000000
     1         -0.00000000         -0.00000000          1.80879904
     7         -0.00000000         -0.00000000          4.98151265
     1         -1.77943417         -0.00000000          5.68464107
     1          0.88971708         -1.54103519          5.68464107
     1          0.88971708          1.54103519          5.68464107

 Electric dipole moment (dipole orientation):
 (Debye = 10**-18 statcoulomb cm , SI units = C m)
                  (au)            (Debye)         (10**-30 SI)
   Tot        0.182374D+01      0.463548D+01      0.154623D+02
   x          0.000000D+00      0.000000D+00      0.000000D+00
   y          0.000000D+00      0.000000D+00      0.000000D+00
   z          0.182374D+01      0.463548D+01      0.154623D+02

 Dipole polarizability, Alpha (dipole orientation).
 (esu units = cm**3 , SI units = C**2 m**2 J**-1)
 Alpha(0;0):
               (au)            (10**-24 esu)      (10**-40 SI)
   iso        0.190673D+02      0.282549D+01      0.314378D+01
   aniso      0.671998D+01      0.995798D+00      0.110798D+01
   xx         0.168273D+02      0.249355D+01      0.277445D+01
   yx         0.000000D+00      0.000000D+00      0.000000D+00
   yy         0.168273D+02      0.249355D+01      0.277445D+01
   zx         0.000000D+00      0.000000D+00      0.000000D+00
   zy         0.000000D+00      0.000000D+00      0.000000D+00
   zz         0.235473D+02      0.348935D+01      0.388243D+01

 ----------------------------------------------------------------------
 1\1\GINC-N2132\Freq\RMP2-FC\Aug-CC-pVTZ\F1H4N1\GDS001\31-Mar-2023\1\\#
 N Geom=AllCheck Guess=TCheck SCRF=Check GenChk RMP2(FC)/Aug-CC-pVTZ Fr
 eq\\Optimization\\0,1\F\X,1,1.\H,1,Rah,2,90.\N,1,Rab,2,90.,3,0.,0\H,4,
 R1,3,A1,2,0.,0\H,4,R1,3,A1,2,120.,0\H,4,R1,3,A1,2,-120.,0\\R1=1.012482
 87\A1=111.56103665\Rah=0.95717523\Rab=2.63610297\\Version=ES64L-G16Rev
 A.03\State=1-A1\HF=-156.296339\MP2=-156.8220369\RMSD=2.397e-09\RMSF=2.
 461e-06\ZeroPoint=0.0487673\Thermal=0.0530773\Dipole=1.8237381,0.,0.\D
 ipoleDeriv=-1.0258479,0.,0.,0.,-0.4296005,0.,0.,0.,-0.4296005,1.268867
 1,0.,0.,0.,0.2689336,0.,0.,0.,0.2689336,-0.8141525,0.,0.,0.,-0.3284798
 ,0.,0.,0.,-0.3284798,0.1903777,0.,-0.0723055,0.,0.1681511,0.,-0.067295
 4,0.,0.1579467,0.1903777,0.0626184,0.0361527,0.0582795,0.1604978,-0.00
 44187,0.0336477,-0.0044187,0.1656,0.1903777,-0.0626184,0.0361527,-0.05
 82795,0.1604978,0.0044187,0.0336477,0.0044187,0.1656\Polar=23.547321,0
 .,16.8273402,0.,0.,16.8273402\PG=C03V [C3(N1H1F1),3SGV(H1)]\NImag=0\\0
 .47234426,0.,0.00901140,0.,0.,0.00901140,-0.42282871,0.,0.,0.40134781,
 0.,-0.01669907,0.,0.,0.03344520,0.,0.,-0.01669907,0.,0.,0.03344520,-0.
 04022351,0.,0.,0.01305912,0.,0.,0.26332327,0.,0.00837093,0.,0.,-0.0175
 8378,0.,0.,0.66994385,0.,0.,0.00837093,0.,0.,-0.01758378,0.,0.,0.66994
 385,-0.00309735,0.,0.00285380,0.00280726,0.,-0.00837124,-0.07871962,0.
 ,-0.16877594,0.07687458,0.,0.00002785,0.,0.,-0.00036362,0.,0.,-0.05957
 341,0.,0.,0.05832769,0.00206761,0.,-0.00048335,-0.00269122,0.,0.000922
 06,-0.11927890,0.,-0.38091393,0.14000120,0.,0.41236608,-0.00309735,-0.
 00247146,-0.00142690,0.00280726,0.00724971,0.00418562,-0.07871962,0.14
 616425,0.08438797,0.00106757,-0.01399661,-0.01004934,0.07687458,-0.001
 79060,-0.00035555,-0.00022135,0.00233067,0.00060064,0.00055672,0.10329
 855,-0.30057880,-0.13914453,0.00170468,0.00079075,0.00423116,-0.121244
 59,0.32385648,-0.00103380,-0.00022135,-0.00009995,0.00134561,0.0005567
 2,-0.00004220,0.05963945,-0.13914453,-0.13990854,0.01714609,-0.0332190
 8,-0.01594543,-0.07000060,0.15330312,0.14683728,-0.00309735,0.00247146
 ,-0.00142690,0.00280726,-0.00724971,0.00418562,-0.07871962,-0.14616425
 ,0.08438797,0.00106757,0.01399661,-0.01004934,0.00106757,0.01570129,-0
 .00709675,0.07687458,0.00179060,-0.00035555,0.00022135,-0.00233067,0.0
 0060064,-0.00055672,-0.10329855,-0.30057880,0.13914453,-0.00170468,0.0
 0079075,-0.00423116,-0.01570129,-0.02431352,0.01872512,0.12124459,0.32
 385648,-0.00103380,0.00022135,-0.00009995,0.00134561,-0.00055672,-0.00
 004220,0.05963945,0.13914453,-0.13990854,0.01714609,0.03321908,-0.0159
 4543,-0.00709675,-0.01872512,0.00915885,-0.07000060,-0.15330312,0.1468
 3728\\-0.00000669,0.,0.,0.00000776,0.,0.,-0.00000187,0.,0.,0.00000027,
 0.,-0.00000031,0.00000027,0.00000027,0.00000016,0.00000027,-0.00000027
 ,0.00000016\\\@


 FIREWORKS ENDED
 AND SPECTATORS GONE AWAY....
 AH, HOW VAST AND DARK
                     SHIKI
 Job cpu time:       0 days  1 hours  5 minutes 18.4 seconds.
 Elapsed time:       0 days  0 hours  2 minutes 21.5 seconds.
 File lengths (MBytes):  RWF=   3332 Int=      0 D2E=      0 Chk=      8 Scr=      8
 Normal termination of Gaussian 16 at Fri Mar 31 12:33:15 2023.
