 Entering Gaussian System, Link 0=g16
 Input=hf_nh3_mp2_avtz_rab_opts.gjf
 Output=hf_nh3_mp2_avtz_rab_opts.log
 Initial command:
 /sw/contrib/gaussian/g16/A03/g16/l1.exe "/gscratch/scrubbed/gds001/Gau-21241.inp" -scrdir="/gscratch/scrubbed/gds001/"
 Entering Link 1 = /sw/contrib/gaussian/g16/A03/g16/l1.exe PID=     21242.
  
 Copyright (c) 1988,1990,1992,1993,1995,1998,2003,2009,2016,
            Gaussian, Inc.  All Rights Reserved.
  
 This is part of the Gaussian(R) 16 program.  It is based on
 the Gaussian(R) 09 system (copyright 2009, Gaussian, Inc.),
 the Gaussian(R) 03 system (copyright 2003, Gaussian, Inc.),
 the Gaussian(R) 98 system (copyright 1998, Gaussian, Inc.),
 the Gaussian(R) 94 system (copyright 1995, Gaussian, Inc.),
 the Gaussian 92(TM) system (copyright 1992, Gaussian, Inc.),
 the Gaussian 90(TM) system (copyright 1990, Gaussian, Inc.),
 the Gaussian 88(TM) system (copyright 1988, Gaussian, Inc.),
 the Gaussian 86(TM) system (copyright 1986, Carnegie Mellon
 University), and the Gaussian 82(TM) system (copyright 1983,
 Carnegie Mellon University). Gaussian is a federally registered
 trademark of Gaussian, Inc.
  
 This software contains proprietary and confidential information,
 including trade secrets, belonging to Gaussian, Inc.
  
 This software is provided under written license and may be
 used, copied, transmitted, or stored only in accord with that
 written license.
  
 The following legend is applicable only to US Government
 contracts under FAR:
  
                    RESTRICTED RIGHTS LEGEND
  
 Use, reproduction and disclosure by the US Government is
 subject to restrictions as set forth in subparagraphs (a)
 and (c) of the Commercial Computer Software - Restricted
 Rights clause in FAR 52.227-19.
  
 Gaussian, Inc.
 340 Quinnipiac St., Bldg. 40, Wallingford CT 06492
  
  
 ---------------------------------------------------------------
 Warning -- This program may not be used in any manner that
 competes with the business of Gaussian, Inc. or will provide
 assistance to any competitor of Gaussian, Inc.  The licensee
 of this program is prohibited from giving any competitor of
 Gaussian, Inc. access to this program.  By using this program,
 the user acknowledges that Gaussian, Inc. is engaged in the
 business of creating and licensing software in the field of
 computational chemistry and represents and warrants to the
 licensee that it is not a competitor of Gaussian, Inc. and that
 it will not use this program in any manner prohibited above.
 ---------------------------------------------------------------
  

 Cite this work as:
 Gaussian 16, Revision A.03,
 M. J. Frisch, G. W. Trucks, H. B. Schlegel, G. E. Scuseria, 
 M. A. Robb, J. R. Cheeseman, G. Scalmani, V. Barone, 
 G. A. Petersson, H. Nakatsuji, X. Li, M. Caricato, A. V. Marenich, 
 J. Bloino, B. G. Janesko, R. Gomperts, B. Mennucci, H. P. Hratchian, 
 J. V. Ortiz, A. F. Izmaylov, J. L. Sonnenberg, D. Williams-Young, 
 F. Ding, F. Lipparini, F. Egidi, J. Goings, B. Peng, A. Petrone, 
 T. Henderson, D. Ranasinghe, V. G. Zakrzewski, J. Gao, N. Rega, 
 G. Zheng, W. Liang, M. Hada, M. Ehara, K. Toyota, R. Fukuda, 
 J. Hasegawa, M. Ishida, T. Nakajima, Y. Honda, O. Kitao, H. Nakai, 
 T. Vreven, K. Throssell, J. A. Montgomery, Jr., J. E. Peralta, 
 F. Ogliaro, M. J. Bearpark, J. J. Heyd, E. N. Brothers, K. N. Kudin, 
 V. N. Staroverov, T. A. Keith, R. Kobayashi, J. Normand, 
 K. Raghavachari, A. P. Rendell, J. C. Burant, S. S. Iyengar, 
 J. Tomasi, M. Cossi, J. M. Millam, M. Klene, C. Adamo, R. Cammi, 
 J. W. Ochterski, R. L. Martin, K. Morokuma, O. Farkas, 
 J. B. Foresman, and D. J. Fox, Gaussian, Inc., Wallingford CT, 2016.
 
 ******************************************
 Gaussian 16:  ES64L-G16RevA.03 25-Dec-2016
                 9-Mar-2024 
 ******************************************
 %nprocshared=28
 Will use up to   28 processors via shared memory.
 %mem=41GB
 -----------------------------------------
 # mp2/aug-cc-pVTZ pop=ChelpG opt=z-matrix
 -----------------------------------------
 1/10=7,18=40,38=1/1,3;
 2/12=2,17=6,18=5,29=3,40=1/2;
 3/5=16,6=1,7=10,11=9,25=1,30=1,71=1/1,2,3;
 4//1;
 5/5=2,38=5/2;
 8/6=4,10=1/1;
 9/15=2,16=-3/6;
 10/5=1/2;
 6/7=2,8=2,9=2,10=2,15=8,20=3/1,2;
 7/12=2,29=1/1,2,3,16;
 1/10=7,18=40/3(2);
 2/29=3/2;
 99//99;
 2/29=3/2;
 3/5=16,6=1,7=10,11=9,25=1,30=1,71=1/1,2,3;
 4/5=5,16=3,69=1/1;
 5/5=2,38=5/2;
 8/6=4,10=1/1;
 9/15=2,16=-3/6;
 10/5=1/2;
 7/12=2/1,2,3,16;
 1/18=40/3(-8);
 2/29=3/2;
 6/7=2,8=2,9=2,10=2,15=8,20=3/1,2;
 99//99;
 --------------------------------
 Title: Rab = 2.1361 Optimization
 --------------------------------
 Symbolic Z-matrix:
 Charge =  0 Multiplicity = 1
 F
 X                    1     1. 
 H                    1    Rah      2     90. 
 N                    1    Rab      2     90.      3     0.       0
 H                    4    R1       3    A1       2     0.       0
 H                    4    R1       3    A1       2     120.     0
 H                    4    R1       3    A1       2    -120.     0
       Variables:
  R1                    1.0125                   
  A1                  111.561                    
  Rah                   0.9572                   
       Constants:
  Rab                   2.1361                   
 

 GradGradGradGradGradGradGradGradGradGradGradGradGradGradGradGradGradGrad
 Berny optimization.
 Initialization pass.
                       ----------------------------
                       !    Initial Parameters    !
                       ! (Angstroms and Degrees)  !
 ----------------------                            ----------------------
 !      Name          Value   Derivative information (Atomic Units)     !
 ------------------------------------------------------------------------
 !       R1          1.0125   estimate D2E/DX2                          !
 !       A1        111.561    estimate D2E/DX2                          !
 !       Rah         0.9572   estimate D2E/DX2                          !
 !       Rab         2.1361   Frozen                                    !
 ------------------------------------------------------------------------
 Trust Radius=3.00D-01 FncErr=1.00D-07 GrdErr=1.00D-07 EigMax=2.50D+02 EigMin=1.00D-04
 Number of steps in this run=     20 maximum allowed number of steps=    100.
 GradGradGradGradGradGradGradGradGradGradGradGradGradGradGradGradGradGrad

 ---------------------------------------------------------------------------------------------------
                            Z-MATRIX (ANGSTROMS AND DEGREES)
   CD    Cent   Atom    N1       Length/X        N2       Alpha/Y        N3        Beta/Z          J
 ---------------------------------------------------------------------------------------------------
      1      1  F 
      2         X        1   1.000000(     1)
      3      2  H        1   0.957200(     2)      2   90.000(     7)
      4      3  N        1   2.136100(     3)      2   90.000(     8)      3    0.000(    12)      0
      5      4  H        4   1.012500(     4)      3  111.561(     9)      2    0.000(    13)      0
      6      5  H        4   1.012500(     5)      3  111.561(    10)      2  120.000(    14)      0
      7      6  H        4   1.012500(     6)      3  111.561(    11)      2 -120.000(    15)      0
 ---------------------------------------------------------------------------------------------------
                         Z-Matrix orientation:                         
 ---------------------------------------------------------------------
 Center     Atomic      Atomic             Coordinates (Angstroms)
 Number     Number       Type             X           Y           Z
 ---------------------------------------------------------------------
      1          9           0        0.000000    0.000000    0.000000
      2         -1           0        0.000000    0.000000    1.000000
      3          1           0        0.957200    0.000000    0.000000
      4          7           0        2.136100    0.000000    0.000000
      5          1           0        2.508185    0.000000    0.941652
      6          1           0        2.508185   -0.815495   -0.470826
      7          1           0        2.508185    0.815495   -0.470826
 ---------------------------------------------------------------------
                    Distance matrix (angstroms):
                    1          2          3          4          5
     1  F    0.000000
     2  X    1.000000   0.000000
     3  H    0.957200   1.384280   0.000000
     4  N    2.136100   2.358585   1.178900   0.000000
     5  H    2.679123   2.508864   1.814460   1.012500   0.000000
     6  H    2.679123   3.019827   1.814460   1.012500   1.630989
     7  H    2.679123   3.019827   1.814460   1.012500   1.630989
                    6          7
     6  H    0.000000
     7  H    1.630989   0.000000
 Stoichiometry    FH4N
 Framework group  C3V[C3(NHF),3SGV(H)]
 Deg. of freedom     4
 Full point group                 C3V     NOp   6
 Largest Abelian subgroup         CS      NOp   2
 Largest concise Abelian subgroup CS      NOp   2
                         Standard orientation:                         
 ---------------------------------------------------------------------
 Center     Atomic      Atomic             Coordinates (Angstroms)
 Number     Number       Type             X           Y           Z
 ---------------------------------------------------------------------
      1          9           0        0.000000    0.000000    1.171723
      2          1           0        0.000000    0.000000    0.214523
      3          7           0       -0.000000   -0.000000   -0.964377
      4          1           0        0.000000    0.941652   -1.336462
      5          1           0        0.815495   -0.470826   -1.336462
      6          1           0       -0.815495   -0.470826   -1.336462
 ---------------------------------------------------------------------
 Rotational constants (GHZ):         188.5079927          11.1717900          11.1717900
 Standard basis: Aug-CC-pVTZ (5D, 7F)
 There are   135 symmetry adapted cartesian basis functions of A'  symmetry.
 There are    75 symmetry adapted cartesian basis functions of A"  symmetry.
 There are   115 symmetry adapted basis functions of A'  symmetry.
 There are    69 symmetry adapted basis functions of A"  symmetry.
   184 basis functions,   252 primitive gaussians,   210 cartesian basis functions
    10 alpha electrons       10 beta electrons
       nuclear repulsion energy        41.8815116657 Hartrees.
 NAtoms=    6 NActive=    6 NUniq=    4 SFac= 2.25D+00 NAtFMM=   60 NAOKFM=F Big=F
 Integral buffers will be    131072 words long.
 Raffenetti 1 integral format.
 Two-electron integral symmetry is turned on.
 One-electron integrals computed using PRISM.
 NBasis=   184 RedAO= T EigKep=  5.28D-05  NBF=   115    69
 NBsUse=   184 1.00D-06 EigRej= -1.00D+00 NBFU=   115    69
 ExpMin= 2.53D-02 ExpMax= 1.95D+04 ExpMxC= 6.65D+02 IAcc=3 IRadAn=         5 AccDes= 0.00D+00
 Harris functional with IExCor=  205 and IRadAn=       5 diagonalized for initial guess.
 HarFok:  IExCor=  205 AccDes= 0.00D+00 IRadAn=         5 IDoV= 1 UseB2=F ITyADJ=14
 ICtDFT=  3500011 ScaDFX=  1.000000  1.000000  1.000000  1.000000
 FoFCou: FMM=F IPFlag=           0 FMFlag=      100000 FMFlg1=           0
         NFxFlg=           0 DoJE=T BraDBF=F KetDBF=T FulRan=T
         wScrn=  0.000000 ICntrl=       500 IOpCl=  0 I1Cent=   200000004 NGrid=           0
         NMat0=    1 NMatS0=      1 NMatT0=    0 NMatD0=    1 NMtDS0=    0 NMtDT0=    0
 Petite list used in FoFCou.
 Initial guess orbital symmetries:
       Occupied  (A1) (A1) (A1) (A1) (A1) (E) (E) (E) (E) (A1)
       Virtual   (A1) (E) (E) (A1) (A1) (E) (E) (A1) (E) (E) (E)
                 (E) (A1) (A1) (E) (E) (A1) (A1) (A2) (E) (E) (E)
                 (E) (A1) (E) (E) (A1) (E) (E) (A1) (E) (E) (E)
                 (E) (A1) (A1) (A1) (E) (E) (E) (E) (A1) (A2) (E)
                 (E) (A1) (E) (E) (E) (E) (A2) (A1) (E) (E) (A1)
                 (E) (E) (E) (E) (A1) (E) (E) (A1) (E) (E) (E)
                 (E) (A1) (A1) (E) (E) (E) (E) (A2) (E) (E) (A1)
                 (A1) (E) (E) (A1) (E) (E) (A2) (A1) (E) (E) (E)
                 (E) (A1) (E) (E) (A1) (E) (E) (A1) (A2) (E) (E)
                 (A1) (A1) (E) (E) (A1) (A1) (E) (E) (E) (E) (E)
                 (E) (A2) (A1) (E) (E) (A2) (E) (E) (E) (E) (E)
                 (E) (A1) (A1) (E) (E) (E) (E) (E) (E) (A1) (A1)
                 (A2) (E) (E) (E) (E) (A1) (E) (E) (A1) (A1) (E)
                 (E) (A1) (E) (E) (E) (E) (A2) (A1) (E) (E) (A1)
                 (E) (E) (A1) (E) (E) (A1) (A2) (A1) (E) (E) (E)
                 (E) (E) (E) (E) (E) (A1) (A1) (A1) (A1)
 The electronic state of the initial guess is 1-A1.
 Keep R1 ints in memory in symmetry-blocked form, NReq=217645940.
 Requested convergence on RMS density matrix=1.00D-08 within 128 cycles.
 Requested convergence on MAX density matrix=1.00D-06.
 Requested convergence on             energy=1.00D-06.
 No special actions if energy rises.
 SCF Done:  E(RHF) =  -156.260580413     A.U. after   10 cycles
            NFock= 10  Conv=0.45D-08     -V/T= 1.9983
 ExpMin= 2.53D-02 ExpMax= 1.95D+04 ExpMxC= 6.65D+02 IAcc=3 IRadAn=         5 AccDes= 0.00D+00
 HarFok:  IExCor=  205 AccDes= 0.00D+00 IRadAn=         5 IDoV=-2 UseB2=F ITyADJ=14
 ICtDFT= 12500011 ScaDFX=  1.000000  1.000000  1.000000  1.000000
 Range of M.O.s used for correlation:     3   184
 NBasis=   184 NAE=    10 NBE=    10 NFC=     2 NFV=     0
 NROrb=    182 NOA=     8 NOB=     8 NVA=   174 NVB=   174

 **** Warning!!: The largest alpha MO coefficient is  0.38751193D+02

 Fully direct method using O(ONN) memory.
 JobTyp=1 Pass  1:  I=   3 to  10 NPSUse= 28 ParTrn=T ParDer=T DoDerP=T.
 Spin components of T(2) and E(2):
     alpha-alpha T2 =       0.1508405251D-01 E2=     -0.6486553809D-01
     alpha-beta  T2 =       0.8684632492D-01 E2=     -0.3996817236D+00
     beta-beta   T2 =       0.1508405251D-01 E2=     -0.6486553809D-01
 ANorm=    0.1056889034D+01
 E2 =    -0.5294127997D+00 EUMP2 =    -0.15678999321299D+03
          IDoAtm=111111
          Differentiating once with respect to electric field.
                with respect to dipole field.
          Differentiating once with respect to nuclear coordinates.
 Keep R1 ints in memory in symmetry-blocked form, NReq=217647180.
          There are     1 degrees of freedom in the 1st order CPHF.  IDoFFX=0 NUNeed=     1.
 LinEq1:  Iter=  0 NonCon=     1 RMS=3.47D-03 Max=4.51D-02 NDo=     1
 AX will form     1 AO Fock derivatives at one time.
 LinEq1:  Iter=  1 NonCon=     1 RMS=8.18D-04 Max=1.30D-02 NDo=     1
 LinEq1:  Iter=  2 NonCon=     1 RMS=2.65D-04 Max=3.03D-03 NDo=     1
 LinEq1:  Iter=  3 NonCon=     1 RMS=4.65D-05 Max=4.60D-04 NDo=     1
 LinEq1:  Iter=  4 NonCon=     1 RMS=1.99D-05 Max=1.93D-04 NDo=     1
 LinEq1:  Iter=  5 NonCon=     1 RMS=2.84D-06 Max=2.71D-05 NDo=     1
 LinEq1:  Iter=  6 NonCon=     1 RMS=5.07D-07 Max=6.69D-06 NDo=     1
 LinEq1:  Iter=  7 NonCon=     1 RMS=1.13D-07 Max=1.54D-06 NDo=     1
 LinEq1:  Iter=  8 NonCon=     1 RMS=1.47D-08 Max=1.65D-07 NDo=     1
 LinEq1:  Iter=  9 NonCon=     1 RMS=2.34D-09 Max=2.35D-08 NDo=     1
 LinEq1:  Iter= 10 NonCon=     1 RMS=3.78D-10 Max=3.97D-09 NDo=     1
 LinEq1:  Iter= 11 NonCon=     0 RMS=4.30D-11 Max=4.42D-10 NDo=     1
 Linear equations converged to 1.000D-10 1.000D-09 after    11 iterations.
 End of Minotr F.D. properties file   721 does not exist.
 End of Minotr F.D. properties file   722 does not exist.
 End of Minotr F.D. properties file   788 does not exist.

 **********************************************************************

            Population analysis using the SCF density.

 **********************************************************************

 Orbital symmetries:
       Occupied  (A1) (A1) (A1) (A1) (A1) (E) (E) (E) (E) (A1)
       Virtual   (A1) (E) (E) (A1) (A1) (A1) (E) (E) (E) (E) (E)
                 (E) (A1) (E) (E) (A1) (A2) (A1) (E) (E) (A1) (A1)
                 (E) (E) (E) (E) (E) (E) (A1) (A1) (E) (E) (E)
                 (E) (A1) (A1) (A1) (A2) (E) (E) (E) (E) (A1) (A1)
                 (E) (E) (E) (E) (A2) (E) (E) (E) (E) (A1) (E)
                 (E) (A1) (E) (E) (A1) (E) (E) (A1) (E) (E) (E)
                 (E) (A1) (A1) (A2) (E) (E) (E) (E) (E) (E) (A1)
                 (E) (E) (A1) (A1) (E) (E) (A2) (A1) (E) (E) (E)
                 (E) (E) (E) (A1) (A1) (E) (E) (A2) (A1) (A1) (E)
                 (E) (A1) (E) (E) (A1) (A1) (E) (E) (E) (E) (E)
                 (E) (A2) (A2) (E) (E) (A1) (E) (E) (E) (E) (E)
                 (E) (A1) (A1) (E) (E) (E) (E) (A1) (E) (E) (A2)
                 (E) (E) (A1) (A1) (E) (E) (E) (E) (A1) (A1) (E)
                 (E) (A1) (E) (E) (E) (E) (A2) (A1) (A1) (E) (E)
                 (E) (E) (A1) (E) (E) (A1) (A2) (A1) (E) (E) (E)
                 (E) (E) (E) (E) (E) (A1) (A1) (A1) (A1)
 The electronic state is 1-A1.
 Alpha  occ. eigenvalues --  -26.15994 -15.60008  -1.49077  -1.22713  -0.74292
 Alpha  occ. eigenvalues --   -0.70180  -0.70180  -0.53300  -0.53300  -0.47338
 Alpha virt. eigenvalues --    0.01593   0.04041   0.04041   0.06937   0.12300
 Alpha virt. eigenvalues --    0.14203   0.14600   0.14600   0.19141   0.19141
 Alpha virt. eigenvalues --    0.21151   0.21151   0.23927   0.28565   0.28565
 Alpha virt. eigenvalues --    0.28623   0.33682   0.34619   0.37387   0.37387
 Alpha virt. eigenvalues --    0.38636   0.39350   0.42045   0.42045   0.44850
 Alpha virt. eigenvalues --    0.44850   0.54600   0.54600   0.54798   0.58358
 Alpha virt. eigenvalues --    0.61828   0.61828   0.70414   0.70414   0.71541
 Alpha virt. eigenvalues --    0.79400   0.83521   0.86785   0.88217   0.88217
 Alpha virt. eigenvalues --    0.90670   0.90670   0.92815   0.96239   0.97580
 Alpha virt. eigenvalues --    0.97580   0.99157   0.99157   1.04321   1.07873
 Alpha virt. eigenvalues --    1.07873   1.14242   1.14242   1.16314   1.20726
 Alpha virt. eigenvalues --    1.20726   1.22152   1.28768   1.28768   1.28935
 Alpha virt. eigenvalues --    1.30305   1.30305   1.33251   1.39827   1.39827
 Alpha virt. eigenvalues --    1.50771   1.50771   1.52076   1.64421   1.71036
 Alpha virt. eigenvalues --    1.71715   1.71715   1.76702   1.76702   1.88443
 Alpha virt. eigenvalues --    1.88443   1.89194   2.02150   2.02150   2.04371
 Alpha virt. eigenvalues --    2.10397   2.15189   2.15189   2.27975   2.37687
 Alpha virt. eigenvalues --    2.37935   2.37935   2.39632   2.39632   2.53298
 Alpha virt. eigenvalues --    2.53298   2.53737   2.83195   2.94846   2.94846
 Alpha virt. eigenvalues --    3.02024   3.02024   3.13537   3.19753   3.19753
 Alpha virt. eigenvalues --    3.24635   3.43861   3.43861   3.55516   3.67422
 Alpha virt. eigenvalues --    3.84611   3.84611   3.92086   3.92086   4.06007
 Alpha virt. eigenvalues --    4.06007   4.15013   4.15871   4.23849   4.23849
 Alpha virt. eigenvalues --    4.29926   4.30218   4.30218   4.34691   4.34691
 Alpha virt. eigenvalues --    4.51399   4.51399   4.51947   4.59508   4.67323
 Alpha virt. eigenvalues --    4.67323   4.75457   4.75457   4.80217   4.88064
 Alpha virt. eigenvalues --    4.88064   4.91777   4.99376   4.99376   5.01329
 Alpha virt. eigenvalues --    5.06831   5.16390   5.16390   5.45453   5.45453
 Alpha virt. eigenvalues --    5.47534   5.73173   5.76470   5.76470   5.84350
 Alpha virt. eigenvalues --    5.94094   5.94094   6.24711   6.24711   6.37121
 Alpha virt. eigenvalues --    6.57301   6.81549   6.86416   6.86416   7.21919
 Alpha virt. eigenvalues --    7.21919   7.58803   7.78159   7.78159   8.12828
 Alpha virt. eigenvalues --    8.93732   8.93916   9.18565   9.18565   9.49424
 Alpha virt. eigenvalues --    9.49424   9.76223   9.76223   9.83718   9.83718
 Alpha virt. eigenvalues --    9.86841  10.19882  15.75538  20.05974
          Condensed to atoms (all electrons):
               1          2          3          4          5          6
     1  F    9.631811   0.215688  -0.246732  -0.000228  -0.000228  -0.000228
     2  H    0.215688   0.441248   0.097631   0.005067   0.005067   0.005067
     3  N   -0.246732   0.097631   6.051406   0.389345   0.389345   0.389345
     4  H   -0.000228   0.005067   0.389345   0.488200  -0.014556  -0.014556
     5  H   -0.000228   0.005067   0.389345  -0.014556   0.488200  -0.014556
     6  H   -0.000228   0.005067   0.389345  -0.014556  -0.014556   0.488200
 Mulliken charges:
               1
     1  F   -0.600082
     2  H    0.230231
     3  N   -0.070338
     4  H    0.146730
     5  H    0.146730
     6  H    0.146730
 Sum of Mulliken charges =  -0.00000
 Mulliken charges with hydrogens summed into heavy atoms:
               1
     1  F   -0.369851
     3  N    0.369851
 Electronic spatial extent (au):  <R**2>=            123.3873
 Charge=             -0.0000 electrons
 Dipole moment (field-independent basis, Debye):
    X=             -0.0000    Y=              0.0000    Z=             -5.4920  Tot=              5.4920
 Quadrupole moment (field-independent basis, Debye-Ang):
   XX=            -11.3989   YY=            -11.3989   ZZ=            -13.8066
   XY=             -0.0000   XZ=              0.0000   YZ=             -0.0000
 Traceless Quadrupole moment (field-independent basis, Debye-Ang):
   XX=              0.8026   YY=              0.8026   ZZ=             -1.6051
   XY=             -0.0000   XZ=              0.0000   YZ=             -0.0000
 Octapole moment (field-independent basis, Debye-Ang**2):
  XXX=             -0.0000  YYY=              1.1103  ZZZ=             -5.1386  XYY=              0.0000
  XXY=             -1.1103  XXZ=             -1.8098  XZZ=             -0.0000  YZZ=              0.0000
  YYZ=             -1.8098  XYZ=              0.0000
 Hexadecapole moment (field-independent basis, Debye-Ang**3):
 XXXX=            -12.6748 YYYY=            -12.6748 ZZZZ=           -107.4938 XXXY=              0.0000
 XXXZ=              0.0000 YYYX=              0.0000 YYYZ=             -1.5870 ZZZX=             -0.0000
 ZZZY=             -0.0000 XXYY=             -4.2249 XXZZ=            -16.9097 YYZZ=            -16.9097
 XXYZ=              1.5870 YYXZ=             -0.0000 ZZXY=              0.0000
 N-N= 4.188151166575D+01 E-N=-4.564894860455D+02  KE= 1.565329471898D+02
 Symmetry A'   KE= 1.478640237571D+02
 Symmetry A"   KE= 8.668923432637D+00
 Breneman (CHELPG) radii used.
 Generate Potential Derived Charges using the Breneman model, NDens= 1.
 Grid spacing= 0.300 Box extension= 2.800
 NStep X,Y,Z=   26     25     29   Total possible points=       18850
 Number of Points to Fit=    5746

 **********************************************************************

            Electrostatic Properties Using The SCF Density

 **********************************************************************

       Atomic Center    1 is at   0.000000  0.000000  1.171723
       Atomic Center    2 is at   0.000000  0.000000  0.214523
       Atomic Center    3 is at  -0.000000 -0.000000 -0.964377
       Atomic Center    4 is at   0.000000  0.941652 -1.336462
       Atomic Center    5 is at   0.815495 -0.470826 -1.336462
       Atomic Center    6 is at  -0.815495 -0.470826 -1.336462
    5746 points will be used for fitting atomic charges
 Fitting point charges to electrostatic potential
 Charges from ESP fit, RMS=   0.00236 RRMS=   0.06615:
 ESP charges:
               1
     1  F   -0.708607
     2  H    0.626873
     3  N   -0.947443
     4  H    0.342952
     5  H    0.343113
     6  H    0.343113
 Sum of ESP charges =   0.00000
 ESP charges with hydrogens summed into heavy atoms:
               1
     1  F   -0.081735
     3  N    0.081735
 Charge=   0.00000 Dipole=     0.0000    -0.0007    -5.5601 Tot=     5.5601
 -----------------------------------------------------------------

              Electrostatic Properties (Atomic Units)

 -----------------------------------------------------------------
    Center     Electric         -------- Electric Field --------
               Potential          X             Y             Z
 -----------------------------------------------------------------
    1 Atom    -26.720162
    2 Atom     -1.009462
    3 Atom    -18.319775
    4 Atom     -0.999037
    5 Atom     -0.999037
    6 Atom     -0.999037
 -----------------------------------------------------------------
 Calling FoFJK, ICntrl=  10002127 FMM=F ISym2X=1 I1Cent= 0 IOpClX= 0 NMat=1 NMatS=1 NMatT=0.
 ***** Axes restored to original set *****
 -------------------------------------------------------------------
 Center     Atomic                   Forces (Hartrees/Bohr)
 Number     Number              X              Y              Z
 -------------------------------------------------------------------
      1        9          -0.104771670    0.000000000    0.000000000
      2        1           0.000445954   -0.000000000    0.000000000
      3        7           0.101387277    0.000000000    0.000000000
      4        1           0.000979480   -0.000000000    0.000458696
      5        1           0.000979480   -0.000397242   -0.000229348
      6        1           0.000979480    0.000397242   -0.000229348
 -------------------------------------------------------------------
 Cartesian Forces:  Max     0.104771670 RMS     0.034367451
 -----------------------------------------------------------------------------------------------
                       Internal Coordinate Forces (Hartree/Bohr or radian)
  Cent   Atom   N1       Length/X         N2         Alpha/Y        N3         Beta/Z          J
 -----------------------------------------------------------------------------------------------
      1  F 
         X        1   0.000000(     1)
      2  H        1   0.000446(     2)      2   0.000000(     7)
      3  N        1   0.104326(     3)      2   0.000000(     8)      3   0.000000(    12)     0
      4  H        4   0.000787(     4)      3   0.001420(     9)      2   0.000000(    13)     0
      5  H        4   0.000787(     5)      3   0.001420(    10)      2   0.000000(    14)     0
      6  H        4   0.000787(     6)      3   0.001420(    11)      2  -0.000000(    15)     0
 -----------------------------------------------------------------------------------------------
 Internal  Forces:  Max     0.104325716 RMS     0.026946815

 GradGradGradGradGradGradGradGradGradGradGradGradGradGradGradGradGradGrad
 Berny optimization.
 Search for a local minimum.
 Step number   1 out of a maximum of   20
 All quantities printed in internal units (Hartrees-Bohrs-Radians)
 Second derivative matrix not updated -- first step.
 The second derivative matrix:
                          R1        A1        Rah       Rab
           R1           1.36669
           A1          -0.00000   1.52517
           Rah         -0.00000  -0.00000   0.82352
           Rab         -0.00000   0.00000  -0.26272   0.33015
 ITU=  0
     Eigenvalues ---    0.82352   1.36669   1.525171000.00000
 RFO step:  Lambda=-1.62213524D-05 EMin= 8.23518958D-01
 Linear search not attempted -- first point.
 Variable       Old X    -DE/DX   Delta X   Delta X   Delta X     New X
                                 (Linear)    (Quad)   (Total)
    R1        1.91335   0.00236   0.00000   0.00173   0.00173   1.91507
    A1        1.94711   0.00426   0.00000   0.00279   0.00279   1.94990
   Rah        1.80885   0.00045   0.00000   0.00054   0.00054   1.80939
   Rab        4.03664   0.10433   0.00000   0.00000   0.00000   4.03664
         Item               Value     Threshold  Converged?
 Maximum Force            0.004261     0.000450     NO 
 RMS     Force            0.002824     0.000300     NO 
 Maximum Displacement     0.002794     0.001800     NO 
 RMS     Displacement     0.001664     0.001200     NO 
 Predicted change in Energy=-8.110676D-06
 GradGradGradGradGradGradGradGradGradGradGradGradGradGradGradGradGradGrad

 ---------------------------------------------------------------------------------------------------
                            Z-MATRIX (ANGSTROMS AND DEGREES)
   CD    Cent   Atom    N1       Length/X        N2       Alpha/Y        N3        Beta/Z          J
 ---------------------------------------------------------------------------------------------------
      1      1  F 
      2         X        1   1.000000(     1)
      3      2  H        1   0.957487(     2)      2   90.000(     7)
      4      3  N        1   2.136100(     3)      2   90.000(     8)      3    0.000(    12)      0
      5      4  H        4   1.013414(     4)      3  111.721(     9)      2    0.000(    13)      0
      6      5  H        4   1.013414(     5)      3  111.721(    10)      2  120.000(    14)      0
      7      6  H        4   1.013414(     6)      3  111.721(    11)      2 -120.000(    15)      0
 ---------------------------------------------------------------------------------------------------
                         Z-Matrix orientation:                         
 ---------------------------------------------------------------------
 Center     Atomic      Atomic             Coordinates (Angstroms)
 Number     Number       Type             X           Y           Z
 ---------------------------------------------------------------------
      1          9           0        0.000000    0.000000    0.000000
      2         -1           0        0.000000    0.000000    1.000000
      3          1           0        0.957487    0.000000    0.000000
      4          7           0        2.136100    0.000000    0.000000
      5          1           0        2.511153    0.000000    0.941458
      6          1           0        2.511153   -0.815326   -0.470729
      7          1           0        2.511153    0.815326   -0.470729
 ---------------------------------------------------------------------
                    Distance matrix (angstroms):
                    1          2          3          4          5
     1  F    0.000000
     2  X    1.000000   0.000000
     3  H    0.957487   1.384478   0.000000
     4  N    2.136100   2.358585   1.178613   0.000000
     5  H    2.681834   2.511835   1.816651   1.013414   0.000000
     6  H    2.681834   3.022199   1.816651   1.013414   1.630653
     7  H    2.681834   3.022199   1.816651   1.013414   1.630653
                    6          7
     6  H    0.000000
     7  H    1.630653   0.000000
 Stoichiometry    FH4N
 Framework group  C3V[C3(NHF),3SGV(H)]
 Deg. of freedom     4
 Full point group                 C3V     NOp   6
 Largest Abelian subgroup         CS      NOp   2
 Largest concise Abelian subgroup CS      NOp   2
                         Standard orientation:                         
 ---------------------------------------------------------------------
 Center     Atomic      Atomic             Coordinates (Angstroms)
 Number     Number       Type             X           Y           Z
 ---------------------------------------------------------------------
      1          9           0        0.000000    0.000000    1.172182
      2          1           0        0.000000    0.000000    0.214696
      3          7           0        0.000000    0.000000   -0.963918
      4          1           0        0.000000    0.941458   -1.338971
      5          1           0        0.815326   -0.470729   -1.338971
      6          1           0       -0.815326   -0.470729   -1.338971
 ---------------------------------------------------------------------
 Rotational constants (GHZ):         188.5858877          11.1654230          11.1654230
 Standard basis: Aug-CC-pVTZ (5D, 7F)
 There are   135 symmetry adapted cartesian basis functions of A'  symmetry.
 There are    75 symmetry adapted cartesian basis functions of A"  symmetry.
 There are   115 symmetry adapted basis functions of A'  symmetry.
 There are    69 symmetry adapted basis functions of A"  symmetry.
   184 basis functions,   252 primitive gaussians,   210 cartesian basis functions
    10 alpha electrons       10 beta electrons
       nuclear repulsion energy        41.8646479446 Hartrees.
 NAtoms=    6 NActive=    6 NUniq=    4 SFac= 2.25D+00 NAtFMM=   60 NAOKFM=F Big=F
 Integral buffers will be    131072 words long.
 Raffenetti 1 integral format.
 Two-electron integral symmetry is turned on.
 One-electron integrals computed using PRISM.
 NBasis=   184 RedAO= T EigKep=  5.30D-05  NBF=   115    69
 NBsUse=   184 1.00D-06 EigRej= -1.00D+00 NBFU=   115    69
 Initial guess from the checkpoint file:  "/gscratch/scrubbed/gds001/Gau-21242.chk"
 B after Tr=     0.000000    0.000000    0.000000
         Rot=    1.000000    0.000000   -0.000000    0.000000 Ang=   0.00 deg.
 Initial guess orbital symmetries:
       Occupied  (A1) (A1) (A1) (A1) (A1) (E) (E) (E) (E) (A1)
       Virtual   (A1) (E) (E) (A1) (A1) (A1) (E) (E) (E) (E) (E)
                 (E) (A1) (E) (E) (A1) (A2) (A1) (E) (E) (A1) (A1)
                 (E) (E) (E) (E) (E) (E) (A1) (A1) (E) (E) (E)
                 (E) (A1) (A1) (A1) (A2) (E) (E) (E) (E) (A1) (A1)
                 (E) (E) (E) (E) (A2) (E) (E) (E) (E) (A1) (E)
                 (E) (A1) (E) (E) (A1) (E) (E) (A1) (E) (E) (E)
                 (E) (A1) (A1) (A2) (E) (E) (E) (E) (E) (E) (A1)
                 (E) (E) (A1) (A1) (E) (E) (A2) (A1) (E) (E) (E)
                 (E) (E) (E) (A1) (A1) (E) (E) (A2) (A1) (A1) (E)
                 (E) (A1) (E) (E) (A1) (A1) (E) (E) (E) (E) (E)
                 (E) (A2) (A2) (E) (E) (A1) (E) (E) (E) (E) (E)
                 (E) (A1) (A1) (E) (E) (E) (E) (A1) (E) (E) (A2)
                 (E) (E) (A1) (A1) (E) (E) (E) (E) (A1) (A1) (E)
                 (E) (A1) (E) (E) (E) (E) (A2) (A1) (A1) (E) (E)
                 (E) (E) (A1) (E) (E) (A1) (A2) (A1) (E) (E) (E)
                 (E) (E) (E) (E) (E) (A1) (A1) (A1) (A1)
 Keep R1 ints in memory in symmetry-blocked form, NReq=217645940.
 Requested convergence on RMS density matrix=1.00D-08 within 128 cycles.
 Requested convergence on MAX density matrix=1.00D-06.
 Requested convergence on             energy=1.00D-06.
 No special actions if energy rises.
 SCF Done:  E(RHF) =  -156.260516503     A.U. after    7 cycles
            NFock=  7  Conv=0.72D-08     -V/T= 1.9983
 ExpMin= 2.53D-02 ExpMax= 1.95D+04 ExpMxC= 6.65D+02 IAcc=3 IRadAn=         5 AccDes= 0.00D+00
 HarFok:  IExCor=  205 AccDes= 0.00D+00 IRadAn=         5 IDoV=-2 UseB2=F ITyADJ=14
 ICtDFT= 12500011 ScaDFX=  1.000000  1.000000  1.000000  1.000000
 Range of M.O.s used for correlation:     3   184
 NBasis=   184 NAE=    10 NBE=    10 NFC=     2 NFV=     0
 NROrb=    182 NOA=     8 NOB=     8 NVA=   174 NVB=   174

 **** Warning!!: The largest alpha MO coefficient is  0.38473681D+02

 Fully direct method using O(ONN) memory.
 JobTyp=1 Pass  1:  I=   3 to  10 NPSUse= 28 ParTrn=T ParDer=T DoDerP=T.
 Spin components of T(2) and E(2):
     alpha-alpha T2 =       0.1509266879D-01 E2=     -0.6487250262D-01
     alpha-beta  T2 =       0.8691119474D-01 E2=     -0.3997442993D+00
     beta-beta   T2 =       0.1509266879D-01 E2=     -0.6487250262D-01
 ANorm=    0.1056927875D+01
 E2 =    -0.5294893045D+00 EUMP2 =    -0.15679000580704D+03
          IDoAtm=111111
          Differentiating once with respect to electric field.
                with respect to dipole field.
          Differentiating once with respect to nuclear coordinates.
 Keep R1 ints in memory in symmetry-blocked form, NReq=217647180.
          There are     1 degrees of freedom in the 1st order CPHF.  IDoFFX=0 NUNeed=     1.
 LinEq1:  Iter=  0 NonCon=     1 RMS=3.47D-03 Max=4.50D-02 NDo=     1
 AX will form     1 AO Fock derivatives at one time.
 LinEq1:  Iter=  1 NonCon=     1 RMS=8.19D-04 Max=1.31D-02 NDo=     1
 LinEq1:  Iter=  2 NonCon=     1 RMS=2.66D-04 Max=3.05D-03 NDo=     1
 LinEq1:  Iter=  3 NonCon=     1 RMS=4.66D-05 Max=4.62D-04 NDo=     1
 LinEq1:  Iter=  4 NonCon=     1 RMS=2.00D-05 Max=1.94D-04 NDo=     1
 LinEq1:  Iter=  5 NonCon=     1 RMS=2.86D-06 Max=2.73D-05 NDo=     1
 LinEq1:  Iter=  6 NonCon=     1 RMS=5.14D-07 Max=6.77D-06 NDo=     1
 LinEq1:  Iter=  7 NonCon=     1 RMS=1.14D-07 Max=1.55D-06 NDo=     1
 LinEq1:  Iter=  8 NonCon=     1 RMS=1.48D-08 Max=1.64D-07 NDo=     1
 LinEq1:  Iter=  9 NonCon=     1 RMS=2.36D-09 Max=2.37D-08 NDo=     1
 LinEq1:  Iter= 10 NonCon=     1 RMS=3.79D-10 Max=3.98D-09 NDo=     1
 LinEq1:  Iter= 11 NonCon=     0 RMS=4.33D-11 Max=4.44D-10 NDo=     1
 Linear equations converged to 1.000D-10 1.000D-09 after    11 iterations.
 End of Minotr F.D. properties file   721 does not exist.
 End of Minotr F.D. properties file   722 does not exist.
 End of Minotr F.D. properties file   788 does not exist.
 Calling FoFJK, ICntrl=  10002127 FMM=F ISym2X=1 I1Cent= 0 IOpClX= 0 NMat=1 NMatS=1 NMatT=0.
 ***** Axes restored to original set *****
 -------------------------------------------------------------------
 Center     Atomic                   Forces (Hartrees/Bohr)
 Number     Number              X              Y              Z
 -------------------------------------------------------------------
      1        9          -0.104468023   -0.000000000    0.000000000
      2        1           0.000137871   -0.000000000    0.000000000
      3        7           0.102757142    0.000000000    0.000000000
      4        1           0.000524336   -0.000000000   -0.000056917
      5        1           0.000524336    0.000049291    0.000028458
      6        1           0.000524336   -0.000049291    0.000028458
 -------------------------------------------------------------------
 Cartesian Forces:  Max     0.104468023 RMS     0.034539391
 -----------------------------------------------------------------------------------------------
                       Internal Coordinate Forces (Hartree/Bohr or radian)
  Cent   Atom   N1       Length/X         N2         Alpha/Y        N3         Beta/Z          J
 -----------------------------------------------------------------------------------------------
      1  F 
         X        1   0.000000(     1)
      2  H        1   0.000138(     2)      2  -0.000000(     7)
      3  N        1   0.104330(     3)      2   0.000000(     8)      3   0.000000(    12)     0
      4  H        4   0.000141(     4)      3   0.000973(     9)      2   0.000000(    13)     0
      5  H        4   0.000141(     5)      3   0.000973(    10)      2   0.000000(    14)     0
      6  H        4   0.000141(     6)      3   0.000973(    11)      2  -0.000000(    15)     0
 -----------------------------------------------------------------------------------------------
 Internal  Forces:  Max     0.104330151 RMS     0.026941542

 GradGradGradGradGradGradGradGradGradGradGradGradGradGradGradGradGradGrad
 Berny optimization.
 Search for a local minimum.
 Step number   2 out of a maximum of   20
 All quantities printed in internal units (Hartrees-Bohrs-Radians)
 Update second derivatives using D2CorN and points    1    2
 DE= -1.26D-05 DEPred=-8.11D-06 R= 1.55D+00
 TightC=F SS=  1.41D+00  RLast= 3.33D-03 DXNew= 5.0454D-01 9.9861D-03
 Trust test= 1.55D+00 RLast= 3.33D-03 DXMaxT set to 3.00D-01
 The second derivative matrix:
                          R1        A1        Rah       Rab
           R1           1.30070
           A1          -0.28085   0.78900
           Rah         -0.02109  -0.08872   0.81678
           Rab          0.01074   0.01738  -0.25935   0.33015
 ITU=  1  0
     Eigenvalues ---    0.62329   0.85796   1.425231000.00000
 RFO step:  Lambda=-3.96017348D-06 EMin= 6.23291352D-01
 Quartic linear search produced a step of  1.23035.
 Variable       Old X    -DE/DX   Delta X   Delta X   Delta X     New X
                                 (Linear)    (Quad)   (Total)
    R1        1.91507   0.00042   0.00212  -0.00127   0.00085   1.91593
    A1        1.94990   0.00292   0.00344   0.00112   0.00456   1.95446
   Rah        1.80939   0.00014   0.00067  -0.00021   0.00046   1.80985
   Rab        4.03664   0.10433   0.00000   0.00000   0.00000   4.03664
         Item               Value     Threshold  Converged?
 Maximum Force            0.002920     0.000450     NO 
 RMS     Force            0.001705     0.000300     NO 
 Maximum Displacement     0.004559     0.001800     NO 
 RMS     Displacement     0.002331     0.001200     NO 
 Predicted change in Energy=-6.262138D-06
 GradGradGradGradGradGradGradGradGradGradGradGradGradGradGradGradGradGrad

 ---------------------------------------------------------------------------------------------------
                            Z-MATRIX (ANGSTROMS AND DEGREES)
   CD    Cent   Atom    N1       Length/X        N2       Alpha/Y        N3        Beta/Z          J
 ---------------------------------------------------------------------------------------------------
      1      1  F 
      2         X        1   1.000000(     1)
      3      2  H        1   0.957729(     2)      2   90.000(     7)
      4      3  N        1   2.136100(     3)      2   90.000(     8)      3    0.000(    12)      0
      5      4  H        4   1.013865(     4)      3  111.982(     9)      2    0.000(    13)      0
      6      5  H        4   1.013865(     5)      3  111.982(    10)      2  120.000(    14)      0
      7      6  H        4   1.013865(     6)      3  111.982(    11)      2 -120.000(    15)      0
 ---------------------------------------------------------------------------------------------------
                         Z-Matrix orientation:                         
 ---------------------------------------------------------------------
 Center     Atomic      Atomic             Coordinates (Angstroms)
 Number     Number       Type             X           Y           Z
 ---------------------------------------------------------------------
      1          9           0        0.000000    0.000000    0.000000
      2         -1           0        0.000000    0.000000    1.000000
      3          1           0        0.957729    0.000000    0.000000
      4          7           0        2.136100    0.000000    0.000000
      5          1           0        2.515610    0.000000    0.940157
      6          1           0        2.515610   -0.814200   -0.470078
      7          1           0        2.515610    0.814200   -0.470078
 ---------------------------------------------------------------------
                    Distance matrix (angstroms):
                    1          2          3          4          5
     1  F    0.000000
     2  X    1.000000   0.000000
     3  H    0.957729   1.384646   0.000000
     4  N    2.136100   2.358585   1.178371   0.000000
     5  H    2.685552   2.516322   1.819585   1.013865   0.000000
     6  H    2.685552   3.025285   1.819585   1.013865   1.628399
     7  H    2.685552   3.025285   1.819585   1.013865   1.628399
                    6          7
     6  H    0.000000
     7  H    1.628399   0.000000
 Stoichiometry    FH4N
 Framework group  C3V[C3(NHF),3SGV(H)]
 Deg. of freedom     4
 Full point group                 C3V     NOp   6
 Largest Abelian subgroup         CS      NOp   2
 Largest concise Abelian subgroup CS      NOp   2
                         Standard orientation:                         
 ---------------------------------------------------------------------
 Center     Atomic      Atomic             Coordinates (Angstroms)
 Number     Number       Type             X           Y           Z
 ---------------------------------------------------------------------
      1          9           0        0.000000   -0.000000    1.172863
      2          1           0        0.000000   -0.000000    0.215134
      3          7           0       -0.000000    0.000000   -0.963237
      4          1           0        0.000000    0.940157   -1.342747
      5          1           0        0.814200   -0.470078   -1.342747
      6          1           0       -0.814200   -0.470078   -1.342747
 ---------------------------------------------------------------------
 Rotational constants (GHZ):         189.1081910          11.1565492          11.1565492
 Standard basis: Aug-CC-pVTZ (5D, 7F)
 There are   135 symmetry adapted cartesian basis functions of A'  symmetry.
 There are    75 symmetry adapted cartesian basis functions of A"  symmetry.
 There are   115 symmetry adapted basis functions of A'  symmetry.
 There are    69 symmetry adapted basis functions of A"  symmetry.
   184 basis functions,   252 primitive gaussians,   210 cartesian basis functions
    10 alpha electrons       10 beta electrons
       nuclear repulsion energy        41.8517127731 Hartrees.
 NAtoms=    6 NActive=    6 NUniq=    4 SFac= 2.25D+00 NAtFMM=   60 NAOKFM=F Big=F
 Integral buffers will be    131072 words long.
 Raffenetti 1 integral format.
 Two-electron integral symmetry is turned on.
 One-electron integrals computed using PRISM.
 NBasis=   184 RedAO= T EigKep=  5.34D-05  NBF=   115    69
 NBsUse=   184 1.00D-06 EigRej= -1.00D+00 NBFU=   115    69
 Initial guess from the checkpoint file:  "/gscratch/scrubbed/gds001/Gau-21242.chk"
 B after Tr=     0.000000    0.000000   -0.000000
         Rot=    1.000000   -0.000000    0.000000    0.000000 Ang=   0.00 deg.
 Initial guess orbital symmetries:
       Occupied  (A1) (A1) (A1) (A1) (A1) (E) (E) (E) (E) (A1)
       Virtual   (A1) (E) (E) (A1) (A1) (A1) (E) (E) (E) (E) (E)
                 (E) (A1) (E) (E) (A1) (A2) (A1) (E) (E) (A1) (A1)
                 (E) (E) (E) (E) (E) (E) (A1) (A1) (E) (E) (E)
                 (E) (A1) (A1) (A1) (A2) (E) (E) (E) (E) (A1) (A1)
                 (E) (E) (E) (E) (A2) (E) (E) (E) (E) (A1) (E)
                 (E) (A1) (E) (E) (A1) (E) (E) (A1) (E) (E) (E)
                 (E) (A1) (A1) (A2) (E) (E) (E) (E) (E) (E) (A1)
                 (E) (E) (A1) (A1) (E) (E) (A2) (A1) (E) (E) (E)
                 (E) (E) (E) (A1) (A1) (E) (E) (A1) (A2) (A1) (E)
                 (E) (A1) (E) (E) (A1) (A1) (E) (E) (E) (E) (E)
                 (E) (A2) (A2) (E) (E) (A1) (E) (E) (E) (E) (E)
                 (E) (A1) (A1) (E) (E) (E) (E) (A1) (E) (E) (A2)
                 (E) (E) (A1) (A1) (E) (E) (E) (E) (A1) (A1) (E)
                 (E) (A1) (E) (E) (E) (E) (A2) (A1) (A1) (E) (E)
                 (E) (E) (A1) (E) (E) (A1) (A2) (A1) (E) (E) (E)
                 (E) (E) (E) (E) (E) (A1) (A1) (A1) (A1)
 Keep R1 ints in memory in symmetry-blocked form, NReq=217645940.
 Requested convergence on RMS density matrix=1.00D-08 within 128 cycles.
 Requested convergence on MAX density matrix=1.00D-06.
 Requested convergence on             energy=1.00D-06.
 No special actions if energy rises.
 SCF Done:  E(RHF) =  -156.260469291     A.U. after    7 cycles
            NFock=  7  Conv=0.51D-08     -V/T= 1.9983
 ExpMin= 2.53D-02 ExpMax= 1.95D+04 ExpMxC= 6.65D+02 IAcc=3 IRadAn=         5 AccDes= 0.00D+00
 HarFok:  IExCor=  205 AccDes= 0.00D+00 IRadAn=         5 IDoV=-2 UseB2=F ITyADJ=14
 ICtDFT= 12500011 ScaDFX=  1.000000  1.000000  1.000000  1.000000
 Range of M.O.s used for correlation:     3   184
 NBasis=   184 NAE=    10 NBE=    10 NFC=     2 NFV=     0
 NROrb=    182 NOA=     8 NOB=     8 NVA=   174 NVB=   174

 **** Warning!!: The largest alpha MO coefficient is  0.38163720D+02

 Fully direct method using O(ONN) memory.
 JobTyp=1 Pass  1:  I=   3 to  10 NPSUse= 28 ParTrn=T ParDer=T DoDerP=T.
 Spin components of T(2) and E(2):
     alpha-alpha T2 =       0.1509876161D-01 E2=     -0.6487771501D-01
     alpha-beta  T2 =       0.8695422939D-01 E2=     -0.3997888540D+00
     beta-beta   T2 =       0.1509876161D-01 E2=     -0.6487771501D-01
 ANorm=    0.1056953997D+01
 E2 =    -0.5295442840D+00 EUMP2 =    -0.15679001357512D+03
          IDoAtm=111111
          Differentiating once with respect to electric field.
                with respect to dipole field.
          Differentiating once with respect to nuclear coordinates.
 Keep R1 ints in memory in symmetry-blocked form, NReq=217647180.
          There are     1 degrees of freedom in the 1st order CPHF.  IDoFFX=0 NUNeed=     1.
 LinEq1:  Iter=  0 NonCon=     1 RMS=3.48D-03 Max=4.47D-02 NDo=     1
 AX will form     1 AO Fock derivatives at one time.
 LinEq1:  Iter=  1 NonCon=     1 RMS=8.20D-04 Max=1.31D-02 NDo=     1
 LinEq1:  Iter=  2 NonCon=     1 RMS=2.66D-04 Max=3.06D-03 NDo=     1
 LinEq1:  Iter=  3 NonCon=     1 RMS=4.66D-05 Max=4.64D-04 NDo=     1
 LinEq1:  Iter=  4 NonCon=     1 RMS=2.00D-05 Max=1.94D-04 NDo=     1
 LinEq1:  Iter=  5 NonCon=     1 RMS=2.88D-06 Max=2.72D-05 NDo=     1
 LinEq1:  Iter=  6 NonCon=     1 RMS=5.20D-07 Max=6.84D-06 NDo=     1
 LinEq1:  Iter=  7 NonCon=     1 RMS=1.15D-07 Max=1.56D-06 NDo=     1
 LinEq1:  Iter=  8 NonCon=     1 RMS=1.49D-08 Max=1.64D-07 NDo=     1
 LinEq1:  Iter=  9 NonCon=     1 RMS=2.37D-09 Max=2.38D-08 NDo=     1
 LinEq1:  Iter= 10 NonCon=     1 RMS=3.80D-10 Max=3.98D-09 NDo=     1
 LinEq1:  Iter= 11 NonCon=     0 RMS=4.34D-11 Max=4.44D-10 NDo=     1
 Linear equations converged to 1.000D-10 1.000D-09 after    11 iterations.
 End of Minotr F.D. properties file   721 does not exist.
 End of Minotr F.D. properties file   722 does not exist.
 End of Minotr F.D. properties file   788 does not exist.
 Calling FoFJK, ICntrl=  10002127 FMM=F ISym2X=1 I1Cent= 0 IOpClX= 0 NMat=1 NMatS=1 NMatT=0.
 ***** Axes restored to original set *****
 -------------------------------------------------------------------
 Center     Atomic                   Forces (Hartrees/Bohr)
 Number     Number              X              Y              Z
 -------------------------------------------------------------------
      1        9          -0.104108387    0.000000000    0.000000000
      2        1          -0.000206705   -0.000000000    0.000000000
      3        7           0.104129558    0.000000000   -0.000000000
      4        1           0.000061845   -0.000000000   -0.000041998
      5        1           0.000061845    0.000036371    0.000020999
      6        1           0.000061845   -0.000036371    0.000020999
 -------------------------------------------------------------------
 Cartesian Forces:  Max     0.104129558 RMS     0.034706372
 -----------------------------------------------------------------------------------------------
                       Internal Coordinate Forces (Hartree/Bohr or radian)
  Cent   Atom   N1       Length/X         N2         Alpha/Y        N3         Beta/Z          J
 -----------------------------------------------------------------------------------------------
      1  F 
         X        1   0.000000(     1)
      2  H        1  -0.000207(     2)      2  -0.000000(     7)
      3  N        1   0.104315(     3)      2   0.000000(     8)      3  -0.000000(    12)     0
      4  H        4  -0.000016(     4)      3   0.000140(     9)      2   0.000000(    13)     0
      5  H        4  -0.000016(     5)      3   0.000140(    10)      2   0.000000(    14)     0
      6  H        4  -0.000016(     6)      3   0.000140(    11)      2  -0.000000(    15)     0
 -----------------------------------------------------------------------------------------------
 Internal  Forces:  Max     0.104315092 RMS     0.026934168

 GradGradGradGradGradGradGradGradGradGradGradGradGradGradGradGradGradGrad
 Berny optimization.
 Search for a local minimum.
 Step number   3 out of a maximum of   20
 All quantities printed in internal units (Hartrees-Bohrs-Radians)
 Update second derivatives using D2CorN and points    1    2    3
 DE= -7.77D-06 DEPred=-6.26D-06 R= 1.24D+00
 TightC=F SS=  1.41D+00  RLast= 4.66D-03 DXNew= 5.0454D-01 1.3983D-02
 Trust test= 1.24D+00 RLast= 4.66D-03 DXMaxT set to 3.00D-01
 The second derivative matrix:
                          R1        A1        Rah       Rab
           R1           1.36402
           A1          -0.19970   0.60149
           Rah          0.00893  -0.04028   0.83119
           Rab          0.01336   0.02544  -0.25830   0.33015
 ITU=  1  1  0
     Eigenvalues ---    0.54753   0.83544   1.413731000.00000
 RFO step:  Lambda=-9.02869918D-08 EMin= 5.47533644D-01
 Quartic linear search produced a step of  0.14798.
 Variable       Old X    -DE/DX   Delta X   Delta X   Delta X     New X
                                 (Linear)    (Quad)   (Total)
    R1        1.91593  -0.00005   0.00013  -0.00008   0.00005   1.91597
    A1        1.95446   0.00042   0.00067   0.00003   0.00071   1.95517
   Rah        1.80985  -0.00021   0.00007  -0.00031  -0.00024   1.80961
   Rab        4.03664   0.10432   0.00000   0.00000   0.00000   4.03664
         Item               Value     Threshold  Converged?
 Maximum Force            0.000420     0.000450     YES
 RMS     Force            0.000272     0.000300     YES
 Maximum Displacement     0.000707     0.001800     YES
 RMS     Displacement     0.000374     0.001200     YES
 Predicted change in Energy=-1.684349D-07
 Optimization completed.
    -- Stationary point found.
                       ----------------------------
                       !   Optimized Parameters   !
                       ! (Angstroms and Degrees)  !
 ----------------------                            ----------------------
 !      Name          Value   Derivative information (Atomic Units)     !
 ------------------------------------------------------------------------
 !       R1          1.0139   -DE/DX =    0.0                           !
 !       A1        111.9823   -DE/DX =    0.0004                        !
 !       Rah         0.9577   -DE/DX =   -0.0002                        !
 !       Rab         2.1361   -DE/DX =    0.1043                        !
 ------------------------------------------------------------------------
 GradGradGradGradGradGradGradGradGradGradGradGradGradGradGradGradGradGrad

 ---------------------------------------------------------------------------------------------------
                            Z-MATRIX (ANGSTROMS AND DEGREES)
   CD    Cent   Atom    N1       Length/X        N2       Alpha/Y        N3        Beta/Z          J
 ---------------------------------------------------------------------------------------------------
      1      1  F 
      2         X        1   1.000000(     1)
      3      2  H        1   0.957729(     2)      2   90.000(     7)
      4      3  N        1   2.136100(     3)      2   90.000(     8)      3    0.000(    12)      0
      5      4  H        4   1.013865(     4)      3  111.982(     9)      2    0.000(    13)      0
      6      5  H        4   1.013865(     5)      3  111.982(    10)      2  120.000(    14)      0
      7      6  H        4   1.013865(     6)      3  111.982(    11)      2 -120.000(    15)      0
 ---------------------------------------------------------------------------------------------------
                         Z-Matrix orientation:                         
 ---------------------------------------------------------------------
 Center     Atomic      Atomic             Coordinates (Angstroms)
 Number     Number       Type             X           Y           Z
 ---------------------------------------------------------------------
      1          9           0        0.000000    0.000000    0.000000
      2         -1           0        0.000000    0.000000    1.000000
      3          1           0        0.957729    0.000000    0.000000
      4          7           0        2.136100    0.000000    0.000000
      5          1           0        2.515610    0.000000    0.940157
      6          1           0        2.515610   -0.814200   -0.470078
      7          1           0        2.515610    0.814200   -0.470078
 ---------------------------------------------------------------------
                    Distance matrix (angstroms):
                    1          2          3          4          5
     1  F    0.000000
     2  X    1.000000   0.000000
     3  H    0.957729   1.384646   0.000000
     4  N    2.136100   2.358585   1.178371   0.000000
     5  H    2.685552   2.516322   1.819585   1.013865   0.000000
     6  H    2.685552   3.025285   1.819585   1.013865   1.628399
     7  H    2.685552   3.025285   1.819585   1.013865   1.628399
                    6          7
     6  H    0.000000
     7  H    1.628399   0.000000
 Stoichiometry    FH4N
 Framework group  C3V[C3(NHF),3SGV(H)]
 Deg. of freedom     4
 Full point group                 C3V     NOp   6
 Largest Abelian subgroup         CS      NOp   2
 Largest concise Abelian subgroup CS      NOp   2
                         Standard orientation:                         
 ---------------------------------------------------------------------
 Center     Atomic      Atomic             Coordinates (Angstroms)
 Number     Number       Type             X           Y           Z
 ---------------------------------------------------------------------
      1          9           0        0.000000   -0.000000    1.172863
      2          1           0        0.000000   -0.000000    0.215134
      3          7           0       -0.000000    0.000000   -0.963237
      4          1           0        0.000000    0.940157   -1.342747
      5          1           0        0.814200   -0.470078   -1.342747
      6          1           0       -0.814200   -0.470078   -1.342747
 ---------------------------------------------------------------------
 Rotational constants (GHZ):         189.1081910          11.1565492          11.1565492

 **********************************************************************

            Population analysis using the SCF density.

 **********************************************************************

 Orbital symmetries:
       Occupied  (A1) (A1) (A1) (A1) (A1) (E) (E) (E) (E) (A1)
       Virtual   (A1) (E) (E) (A1) (A1) (A1) (E) (E) (E) (E) (E)
                 (E) (A1) (E) (E) (A1) (A2) (A1) (E) (E) (A1) (A1)
                 (E) (E) (E) (E) (E) (E) (A1) (A1) (E) (E) (E)
                 (E) (A1) (A1) (A1) (A2) (E) (E) (E) (E) (A1) (A1)
                 (E) (E) (E) (E) (A2) (E) (E) (E) (E) (A1) (E)
                 (E) (A1) (E) (E) (A1) (E) (E) (A1) (E) (E) (E)
                 (E) (A1) (A1) (A2) (E) (E) (E) (E) (E) (E) (A1)
                 (E) (E) (A1) (A1) (E) (E) (A2) (E) (E) (A1) (E)
                 (E) (A1) (E) (E) (A1) (E) (E) (A1) (A2) (A1) (E)
                 (E) (A1) (E) (E) (A1) (A1) (E) (E) (E) (E) (E)
                 (E) (A2) (A2) (E) (E) (A1) (E) (E) (E) (E) (E)
                 (E) (A1) (A1) (E) (E) (E) (E) (A1) (E) (E) (A2)
                 (E) (E) (A1) (A1) (E) (E) (E) (E) (A1) (A1) (E)
                 (E) (A1) (E) (E) (E) (E) (A2) (A1) (A1) (E) (E)
                 (E) (E) (A1) (E) (E) (A1) (A2) (A1) (E) (E) (E)
                 (E) (E) (E) (E) (E) (A1) (A1) (A1) (A1)
 The electronic state is 1-A1.
 Alpha  occ. eigenvalues --  -26.15972 -15.60093  -1.49036  -1.22712  -0.74343
 Alpha  occ. eigenvalues --   -0.70059  -0.70059  -0.53271  -0.53271  -0.47415
 Alpha virt. eigenvalues --    0.01576   0.04037   0.04037   0.06930   0.12270
 Alpha virt. eigenvalues --    0.14227   0.14610   0.14610   0.19129   0.19129
 Alpha virt. eigenvalues --    0.21127   0.21127   0.23920   0.28534   0.28534
 Alpha virt. eigenvalues --    0.28619   0.33686   0.34538   0.37411   0.37411
 Alpha virt. eigenvalues --    0.38610   0.39429   0.41979   0.41979   0.44851
 Alpha virt. eigenvalues --    0.44851   0.54637   0.54637   0.54960   0.58357
 Alpha virt. eigenvalues --    0.61752   0.61752   0.70353   0.70353   0.71557
 Alpha virt. eigenvalues --    0.79557   0.83383   0.86835   0.88217   0.88217
 Alpha virt. eigenvalues --    0.90636   0.90636   0.92849   0.96304   0.97600
 Alpha virt. eigenvalues --    0.97600   0.99046   0.99046   1.04328   1.07942
 Alpha virt. eigenvalues --    1.07942   1.14195   1.14195   1.16297   1.20594
 Alpha virt. eigenvalues --    1.20594   1.21927   1.28743   1.28743   1.29351
 Alpha virt. eigenvalues --    1.30310   1.30310   1.33277   1.39808   1.39808
 Alpha virt. eigenvalues --    1.50642   1.50642   1.51950   1.64322   1.71238
 Alpha virt. eigenvalues --    1.71682   1.71682   1.76586   1.76586   1.88396
 Alpha virt. eigenvalues --    1.88396   1.89238   2.02033   2.02033   2.04702
 Alpha virt. eigenvalues --    2.10288   2.14955   2.14955   2.27396   2.38025
 Alpha virt. eigenvalues --    2.38025   2.38134   2.39623   2.39623   2.53329
 Alpha virt. eigenvalues --    2.53420   2.53420   2.83620   2.94877   2.94877
 Alpha virt. eigenvalues --    3.02022   3.02042   3.13194   3.19790   3.19790
 Alpha virt. eigenvalues --    3.24654   3.43731   3.43731   3.55213   3.66573
 Alpha virt. eigenvalues --    3.84692   3.84692   3.92022   3.92022   4.05847
 Alpha virt. eigenvalues --    4.05847   4.15176   4.15830   4.23786   4.23786
 Alpha virt. eigenvalues --    4.29709   4.30427   4.30427   4.34681   4.34681
 Alpha virt. eigenvalues --    4.50777   4.50777   4.52289   4.59531   4.67262
 Alpha virt. eigenvalues --    4.67262   4.74867   4.74867   4.80254   4.87694
 Alpha virt. eigenvalues --    4.87694   4.92081   4.99452   4.99452   5.01434
 Alpha virt. eigenvalues --    5.07424   5.15976   5.15976   5.44909   5.44909
 Alpha virt. eigenvalues --    5.47105   5.72081   5.76341   5.76341   5.84581
 Alpha virt. eigenvalues --    5.94073   5.94073   6.24971   6.24971   6.34957
 Alpha virt. eigenvalues --    6.57632   6.79210   6.86750   6.86750   7.21844
 Alpha virt. eigenvalues --    7.21844   7.58304   7.78065   7.78065   8.12774
 Alpha virt. eigenvalues --    8.93750   8.93927   9.18601   9.18601   9.49434
 Alpha virt. eigenvalues --    9.49434   9.75975   9.75975   9.83709   9.83709
 Alpha virt. eigenvalues --    9.86850  10.19727  15.73723  19.98917
          Condensed to atoms (all electrons):
               1          2          3          4          5          6
     1  F    9.631378   0.214851  -0.246532   0.000068   0.000068   0.000068
     2  H    0.214851   0.439295   0.099296   0.005191   0.005191   0.005191
     3  N   -0.246532   0.099296   6.057793   0.387545   0.387545   0.387545
     4  H    0.000068   0.005191   0.387545   0.487633  -0.013904  -0.013904
     5  H    0.000068   0.005191   0.387545  -0.013904   0.487633  -0.013904
     6  H    0.000068   0.005191   0.387545  -0.013904  -0.013904   0.487633
 Mulliken charges:
               1
     1  F   -0.599903
     2  H    0.230985
     3  N   -0.073193
     4  H    0.147370
     5  H    0.147370
     6  H    0.147370
 Sum of Mulliken charges =   0.00000
 Mulliken charges with hydrogens summed into heavy atoms:
               1
     1  F   -0.368918
     3  N    0.368918
 Electronic spatial extent (au):  <R**2>=            123.5437
 Charge=             -0.0000 electrons
 Dipole moment (field-independent basis, Debye):
    X=             -0.0000    Y=             -0.0000    Z=             -5.5228  Tot=              5.5228
 Quadrupole moment (field-independent basis, Debye-Ang):
   XX=            -11.4174   YY=            -11.4174   ZZ=            -13.7350
   XY=             -0.0000   XZ=              0.0000   YZ=              0.0000
 Traceless Quadrupole moment (field-independent basis, Debye-Ang):
   XX=              0.7725   YY=              0.7725   ZZ=             -1.5450
   XY=             -0.0000   XZ=              0.0000   YZ=              0.0000
 Octapole moment (field-independent basis, Debye-Ang**2):
  XXX=             -0.0000  YYY=              1.1024  ZZZ=             -5.3358  XYY=              0.0000
  XXY=             -1.1024  XXZ=             -1.8077  XZZ=             -0.0000  YZZ=             -0.0000
  YYZ=             -1.8077  XYZ=              0.0000
 Hexadecapole moment (field-independent basis, Debye-Ang**3):
 XXXX=            -12.7029 YYYY=            -12.7029 ZZZZ=           -107.3634 XXXY=              0.0000
 XXXZ=              0.0000 YYYX=              0.0000 YYYZ=             -1.5858 ZZZX=              0.0000
 ZZZY=              0.0000 XXYY=             -4.2343 XXZZ=            -16.9212 YYZZ=            -16.9212
 XXYZ=              1.5858 YYXZ=             -0.0000 ZZXY=              0.0000
 N-N= 4.185171277307D+01 E-N=-4.564263931579D+02  KE= 1.565266424054D+02
 Symmetry A'   KE= 1.478597823077D+02
 Symmetry A"   KE= 8.666860097684D+00
 Breneman (CHELPG) radii used.
 Generate Potential Derived Charges using the Breneman model, NDens= 1.
 Grid spacing= 0.300 Box extension= 2.800
 NStep X,Y,Z=   26     25     29   Total possible points=       18850
 Number of Points to Fit=    5746

 **********************************************************************

            Electrostatic Properties Using The SCF Density

 **********************************************************************

       Atomic Center    1 is at   0.000000 -0.000000  1.172863
       Atomic Center    2 is at   0.000000 -0.000000  0.215134
       Atomic Center    3 is at  -0.000000  0.000000 -0.963237
       Atomic Center    4 is at   0.000000  0.940157 -1.342747
       Atomic Center    5 is at   0.814200 -0.470078 -1.342747
       Atomic Center    6 is at  -0.814200 -0.470078 -1.342747
    5746 points will be used for fitting atomic charges
 Fitting point charges to electrostatic potential
 Charges from ESP fit, RMS=   0.00236 RRMS=   0.06560:
 ESP charges:
               1
     1  F   -0.705837
     2  H    0.616733
     3  N   -0.918873
     4  H    0.335788
     5  H    0.336094
     6  H    0.336094
 Sum of ESP charges =  -0.00000
 ESP charges with hydrogens summed into heavy atoms:
               1
     1  F   -0.089104
     3  N    0.089104
 Charge=  -0.00000 Dipole=    -0.0000    -0.0014    -5.5887 Tot=     5.5887
 -----------------------------------------------------------------

              Electrostatic Properties (Atomic Units)

 -----------------------------------------------------------------
    Center     Electric         -------- Electric Field --------
               Potential          X             Y             Z
 -----------------------------------------------------------------
    1 Atom    -26.720382
    2 Atom     -1.009402
    3 Atom    -18.319108
    4 Atom     -0.998790
    5 Atom     -0.998790
    6 Atom     -0.998790
 -----------------------------------------------------------------
 1\1\GINC-N2109\POpt\RMP2-FC\Aug-CC-pVTZ\F1H4N1\GDS001\09-Mar-2024\1\\#
  mp2/aug-cc-pVTZ pop=ChelpG opt=z-matrix\\Title: Rab = 2.1361 Optimiza
 tion\\0,1\F\X,1,1.\H,1,Rah,2,90.\N,1,Rab,2,90.,3,0.,0\H,4,R1,3,A1,2,0.
 ,0\H,4,R1,3,A1,2,120.,0\H,4,R1,3,A1,2,-120.,0\\R1=1.01386521\A1=111.98
 231111\Rah=0.95772895\Rab=2.1361\\Version=ES64L-G16RevA.03\State=1-A1\
 HF=-156.2604693\MP2=-156.7900136\RMSD=5.073e-09\RMSF=3.471e-02\Dipole=
 2.1003373,0.,0.\PG=C03V [C3(N1H1F1),3SGV(H1)]\\@


 "MATHEMATICS IS THE ART OF GIVING THE SAME NAME
 TO DIFFERENT THINGS."
                    - H. POINCARE
 Job cpu time:       0 days  0 hours 16 minutes 25.7 seconds.
 Elapsed time:       0 days  0 hours  0 minutes 42.0 seconds.
 File lengths (MBytes):  RWF=     72 Int=      0 D2E=      0 Chk=      8 Scr=      8
 Normal termination of Gaussian 16 at Sat Mar  9 10:49:33 2024.
 Initial command:
 /sw/contrib/gaussian/g16/A03/g16/l1.exe "/gscratch/scrubbed/gds001/Gau-21241.inp" -scrdir="/gscratch/scrubbed/gds001/"
 Entering Link 1 = /sw/contrib/gaussian/g16/A03/g16/l1.exe PID=     23013.
  
 Copyright (c) 1988,1990,1992,1993,1995,1998,2003,2009,2016,
            Gaussian, Inc.  All Rights Reserved.
  
 This is part of the Gaussian(R) 16 program.  It is based on
 the Gaussian(R) 09 system (copyright 2009, Gaussian, Inc.),
 the Gaussian(R) 03 system (copyright 2003, Gaussian, Inc.),
 the Gaussian(R) 98 system (copyright 1998, Gaussian, Inc.),
 the Gaussian(R) 94 system (copyright 1995, Gaussian, Inc.),
 the Gaussian 92(TM) system (copyright 1992, Gaussian, Inc.),
 the Gaussian 90(TM) system (copyright 1990, Gaussian, Inc.),
 the Gaussian 88(TM) system (copyright 1988, Gaussian, Inc.),
 the Gaussian 86(TM) system (copyright 1986, Carnegie Mellon
 University), and the Gaussian 82(TM) system (copyright 1983,
 Carnegie Mellon University). Gaussian is a federally registered
 trademark of Gaussian, Inc.
  
 This software contains proprietary and confidential information,
 including trade secrets, belonging to Gaussian, Inc.
  
 This software is provided under written license and may be
 used, copied, transmitted, or stored only in accord with that
 written license.
  
 The following legend is applicable only to US Government
 contracts under FAR:
  
                    RESTRICTED RIGHTS LEGEND
  
 Use, reproduction and disclosure by the US Government is
 subject to restrictions as set forth in subparagraphs (a)
 and (c) of the Commercial Computer Software - Restricted
 Rights clause in FAR 52.227-19.
  
 Gaussian, Inc.
 340 Quinnipiac St., Bldg. 40, Wallingford CT 06492
  
  
 ---------------------------------------------------------------
 Warning -- This program may not be used in any manner that
 competes with the business of Gaussian, Inc. or will provide
 assistance to any competitor of Gaussian, Inc.  The licensee
 of this program is prohibited from giving any competitor of
 Gaussian, Inc. access to this program.  By using this program,
 the user acknowledges that Gaussian, Inc. is engaged in the
 business of creating and licensing software in the field of
 computational chemistry and represents and warrants to the
 licensee that it is not a competitor of Gaussian, Inc. and that
 it will not use this program in any manner prohibited above.
 ---------------------------------------------------------------
  

 Cite this work as:
 Gaussian 16, Revision A.03,
 M. J. Frisch, G. W. Trucks, H. B. Schlegel, G. E. Scuseria, 
 M. A. Robb, J. R. Cheeseman, G. Scalmani, V. Barone, 
 G. A. Petersson, H. Nakatsuji, X. Li, M. Caricato, A. V. Marenich, 
 J. Bloino, B. G. Janesko, R. Gomperts, B. Mennucci, H. P. Hratchian, 
 J. V. Ortiz, A. F. Izmaylov, J. L. Sonnenberg, D. Williams-Young, 
 F. Ding, F. Lipparini, F. Egidi, J. Goings, B. Peng, A. Petrone, 
 T. Henderson, D. Ranasinghe, V. G. Zakrzewski, J. Gao, N. Rega, 
 G. Zheng, W. Liang, M. Hada, M. Ehara, K. Toyota, R. Fukuda, 
 J. Hasegawa, M. Ishida, T. Nakajima, Y. Honda, O. Kitao, H. Nakai, 
 T. Vreven, K. Throssell, J. A. Montgomery, Jr., J. E. Peralta, 
 F. Ogliaro, M. J. Bearpark, J. J. Heyd, E. N. Brothers, K. N. Kudin, 
 V. N. Staroverov, T. A. Keith, R. Kobayashi, J. Normand, 
 K. Raghavachari, A. P. Rendell, J. C. Burant, S. S. Iyengar, 
 J. Tomasi, M. Cossi, J. M. Millam, M. Klene, C. Adamo, R. Cammi, 
 J. W. Ochterski, R. L. Martin, K. Morokuma, O. Farkas, 
 J. B. Foresman, and D. J. Fox, Gaussian, Inc., Wallingford CT, 2016.
 
 ******************************************
 Gaussian 16:  ES64L-G16RevA.03 25-Dec-2016
                 9-Mar-2024 
 ******************************************
 %nprocshared=28
 Will use up to   28 processors via shared memory.
 %mem=41GB
 -----------------------------------------
 # mp2/aug-cc-pVTZ pop=ChelpG opt=z-matrix
 -----------------------------------------
 1/10=7,18=40,38=1/1,3;
 2/12=2,17=6,18=5,29=3,40=1/2;
 3/5=16,6=1,7=10,11=9,25=1,30=1,71=1/1,2,3;
 4//1;
 5/5=2,38=5/2;
 8/6=4,10=1/1;
 9/15=2,16=-3/6;
 10/5=1/2;
 6/7=2,8=2,9=2,10=2,15=8,20=3/1,2;
 7/12=2,29=1/1,2,3,16;
 1/10=7,18=40/3(2);
 2/29=3/2;
 99//99;
 2/29=3/2;
 3/5=16,6=1,7=10,11=9,25=1,30=1,71=1/1,2,3;
 4/5=5,16=3,69=1/1;
 5/5=2,38=5/2;
 8/6=4,10=1/1;
 9/15=2,16=-3/6;
 10/5=1/2;
 7/12=2/1,2,3,16;
 1/18=40/3(-8);
 2/29=3/2;
 6/7=2,8=2,9=2,10=2,15=8,20=3/1,2;
 99//99;
 --------------------------------
 Title: Rab = 2.2361 Optimization
 --------------------------------
 Symbolic Z-matrix:
 Charge =  0 Multiplicity = 1
 F
 X                    1     1. 
 H                    1    Rah      2     90. 
 N                    1    Rab      2     90.      3     0.       0
 H                    4    R1       3    A1       2     0.       0
 H                    4    R1       3    A1       2     120.     0
 H                    4    R1       3    A1       2    -120.     0
       Variables:
  R1                    1.0125                   
  A1                  111.561                    
  Rah                   0.9572                   
       Constants:
  Rab                   2.2361                   
 

 GradGradGradGradGradGradGradGradGradGradGradGradGradGradGradGradGradGrad
 Berny optimization.
 Initialization pass.
                       ----------------------------
                       !    Initial Parameters    !
                       ! (Angstroms and Degrees)  !
 ----------------------                            ----------------------
 !      Name          Value   Derivative information (Atomic Units)     !
 ------------------------------------------------------------------------
 !       R1          1.0125   estimate D2E/DX2                          !
 !       A1        111.561    estimate D2E/DX2                          !
 !       Rah         0.9572   estimate D2E/DX2                          !
 !       Rab         2.2361   Frozen                                    !
 ------------------------------------------------------------------------
 Trust Radius=3.00D-01 FncErr=1.00D-07 GrdErr=1.00D-07 EigMax=2.50D+02 EigMin=1.00D-04
 Number of steps in this run=     20 maximum allowed number of steps=    100.
 GradGradGradGradGradGradGradGradGradGradGradGradGradGradGradGradGradGrad

 ---------------------------------------------------------------------------------------------------
                            Z-MATRIX (ANGSTROMS AND DEGREES)
   CD    Cent   Atom    N1       Length/X        N2       Alpha/Y        N3        Beta/Z          J
 ---------------------------------------------------------------------------------------------------
      1      1  F 
      2         X        1   1.000000(     1)
      3      2  H        1   0.957200(     2)      2   90.000(     7)
      4      3  N        1   2.236100(     3)      2   90.000(     8)      3    0.000(    12)      0
      5      4  H        4   1.012500(     4)      3  111.561(     9)      2    0.000(    13)      0
      6      5  H        4   1.012500(     5)      3  111.561(    10)      2  120.000(    14)      0
      7      6  H        4   1.012500(     6)      3  111.561(    11)      2 -120.000(    15)      0
 ---------------------------------------------------------------------------------------------------
                         Z-Matrix orientation:                         
 ---------------------------------------------------------------------
 Center     Atomic      Atomic             Coordinates (Angstroms)
 Number     Number       Type             X           Y           Z
 ---------------------------------------------------------------------
      1          9           0        0.000000    0.000000    0.000000
      2         -1           0        0.000000    0.000000    1.000000
      3          1           0        0.957200    0.000000    0.000000
      4          7           0        2.236100    0.000000    0.000000
      5          1           0        2.608185    0.000000    0.941652
      6          1           0        2.608185   -0.815495   -0.470826
      7          1           0        2.608185    0.815495   -0.470826
 ---------------------------------------------------------------------
                    Distance matrix (angstroms):
                    1          2          3          4          5
     1  F    0.000000
     2  X    1.000000   0.000000
     3  H    0.957200   1.384280   0.000000
     4  N    2.236100   2.449519   1.278900   0.000000
     5  H    2.772966   2.608838   1.900648   1.012500   0.000000
     6  H    2.772966   3.103384   1.900648   1.012500   1.630989
     7  H    2.772966   3.103384   1.900648   1.012500   1.630989
                    6          7
     6  H    0.000000
     7  H    1.630989   0.000000
 Stoichiometry    FH4N
 Framework group  C3V[C3(NHF),3SGV(H)]
 Deg. of freedom     4
 Full point group                 C3V     NOp   6
 Largest Abelian subgroup         CS      NOp   2
 Largest concise Abelian subgroup CS      NOp   2
                         Standard orientation:                         
 ---------------------------------------------------------------------
 Center     Atomic      Atomic             Coordinates (Angstroms)
 Number     Number       Type             X           Y           Z
 ---------------------------------------------------------------------
      1          9           0       -0.000000    0.000000    1.221723
      2          1           0       -0.000000    0.000000    0.264523
      3          7           0        0.000000   -0.000000   -1.014377
      4          1           0        0.000000    0.941652   -1.386462
      5          1           0        0.815495   -0.470826   -1.386462
      6          1           0       -0.815495   -0.470826   -1.386462
 ---------------------------------------------------------------------
 Rotational constants (GHZ):         188.5079927          10.2528481          10.2528481
 Standard basis: Aug-CC-pVTZ (5D, 7F)
 There are   135 symmetry adapted cartesian basis functions of A'  symmetry.
 There are    75 symmetry adapted cartesian basis functions of A"  symmetry.
 There are   115 symmetry adapted basis functions of A'  symmetry.
 There are    69 symmetry adapted basis functions of A"  symmetry.
   184 basis functions,   252 primitive gaussians,   210 cartesian basis functions
    10 alpha electrons       10 beta electrons
       nuclear repulsion energy        40.7177111300 Hartrees.
 NAtoms=    6 NActive=    6 NUniq=    4 SFac= 2.25D+00 NAtFMM=   60 NAOKFM=F Big=F
 Integral buffers will be    131072 words long.
 Raffenetti 1 integral format.
 Two-electron integral symmetry is turned on.
 One-electron integrals computed using PRISM.
 NBasis=   184 RedAO= T EigKep=  6.34D-05  NBF=   115    69
 NBsUse=   184 1.00D-06 EigRej= -1.00D+00 NBFU=   115    69
 ExpMin= 2.53D-02 ExpMax= 1.95D+04 ExpMxC= 6.65D+02 IAcc=3 IRadAn=         5 AccDes= 0.00D+00
 Harris functional with IExCor=  205 and IRadAn=       5 diagonalized for initial guess.
 HarFok:  IExCor=  205 AccDes= 0.00D+00 IRadAn=         5 IDoV= 1 UseB2=F ITyADJ=14
 ICtDFT=  3500011 ScaDFX=  1.000000  1.000000  1.000000  1.000000
 FoFCou: FMM=F IPFlag=           0 FMFlag=      100000 FMFlg1=           0
         NFxFlg=           0 DoJE=T BraDBF=F KetDBF=T FulRan=T
         wScrn=  0.000000 ICntrl=       500 IOpCl=  0 I1Cent=   200000004 NGrid=           0
         NMat0=    1 NMatS0=      1 NMatT0=    0 NMatD0=    1 NMtDS0=    0 NMtDT0=    0
 Petite list used in FoFCou.
 Initial guess orbital symmetries:
       Occupied  (A1) (A1) (A1) (A1) (A1) (E) (E) (E) (E) (A1)
       Virtual   (A1) (E) (E) (A1) (A1) (E) (E) (A1) (E) (E) (E)
                 (E) (A1) (A1) (E) (E) (A1) (A1) (A2) (E) (E) (E)
                 (E) (A1) (A1) (E) (E) (E) (E) (A1) (E) (E) (E)
                 (E) (A1) (A1) (A1) (E) (E) (E) (E) (A2) (A1) (E)
                 (E) (A1) (E) (E) (E) (E) (A2) (E) (E) (A1) (A1)
                 (E) (E) (E) (E) (A1) (E) (E) (A1) (E) (E) (E)
                 (E) (A1) (A1) (E) (E) (E) (E) (A2) (E) (E) (A1)
                 (A1) (E) (E) (A1) (E) (E) (A2) (A1) (E) (E) (E)
                 (E) (E) (E) (A1) (A1) (E) (E) (A2) (A1) (E) (E)
                 (A1) (A1) (E) (E) (A1) (A1) (E) (E) (E) (E) (E)
                 (E) (A1) (A2) (E) (E) (A2) (E) (E) (E) (E) (A1)
                 (E) (E) (A1) (E) (E) (E) (E) (E) (E) (A1) (A1)
                 (E) (E) (A2) (E) (E) (A1) (E) (E) (A1) (A1) (E)
                 (E) (E) (E) (A1) (E) (E) (A2) (A1) (E) (E) (A1)
                 (E) (E) (A1) (E) (E) (A1) (A2) (A1) (E) (E) (E)
                 (E) (E) (E) (E) (E) (A1) (A1) (A1) (A1)
 The electronic state of the initial guess is 1-A1.
 Keep R1 ints in memory in symmetry-blocked form, NReq=217645928.
 Requested convergence on RMS density matrix=1.00D-08 within 128 cycles.
 Requested convergence on MAX density matrix=1.00D-06.
 Requested convergence on             energy=1.00D-06.
 No special actions if energy rises.
 SCF Done:  E(RHF) =  -156.276779020     A.U. after   10 cycles
            NFock= 10  Conv=0.46D-08     -V/T= 1.9992
[...]
 Range of M.O.s used for correlation:     3   184
 NBasis=   184 NAE=    10 NBE=    10 NFC=     2 NFV=     0
 NROrb=    182 NOA=     8 NOB=     8 NVA=   174 NVB=   174

 **** Warning!!: The largest alpha MO coefficient is  0.18556716D+02

 Fully direct method using O(ONN) memory.
 JobTyp=1 Pass  1:  I=   3 to  10 NPSUse= 28 ParTrn=T ParDer=T DoDerP=T.
 Spin components of T(2) and E(2):
     alpha-alpha T2 =       0.1486050449D-01 E2=     -0.6219927625D-01
     alpha-beta  T2 =       0.8927656869D-01 E2=     -0.3958729632D+00
     beta-beta   T2 =       0.1486050449D-01 E2=     -0.6219927625D-01
 ANorm=    0.1057826818D+01
 E2 =    -0.5202715157D+00 EUMP2 =    -0.15680144951011D+03
          IDoAtm=111111
          Differentiating once with respect to electric field.
                with respect to dipole field.
          Differentiating once with respect to nuclear coordinates.
 Keep R1 ints in memory in symmetry-blocked form, NReq=217647168.
          There are     1 degrees of freedom in the 1st order CPHF.  IDoFFX=0 NUNeed=     1.
 LinEq1:  Iter=  0 NonCon=     1 RMS=3.05D-03 Max=5.07D-02 NDo=     1
 AX will form     1 AO Fock derivatives at one time.
 LinEq1:  Iter=  1 NonCon=     1 RMS=7.58D-04 Max=1.39D-02 NDo=     1
 LinEq1:  Iter=  2 NonCon=     1 RMS=2.83D-04 Max=3.88D-03 NDo=     1
 LinEq1:  Iter=  3 NonCon=     1 RMS=4.04D-05 Max=3.93D-04 NDo=     1
 LinEq1:  Iter=  4 NonCon=     1 RMS=1.12D-05 Max=1.55D-04 NDo=     1
 LinEq1:  Iter=  5 NonCon=     1 RMS=3.89D-06 Max=5.27D-05 NDo=     1
 LinEq1:  Iter=  6 NonCon=     1 RMS=1.01D-06 Max=1.37D-05 NDo=     1
 LinEq1:  Iter=  7 NonCon=     1 RMS=1.52D-07 Max=2.19D-06 NDo=     1
 LinEq1:  Iter=  8 NonCon=     1 RMS=1.74D-08 Max=2.15D-07 NDo=     1
 LinEq1:  Iter=  9 NonCon=     1 RMS=2.13D-09 Max=2.61D-08 NDo=     1
 LinEq1:  Iter= 10 NonCon=     1 RMS=2.89D-10 Max=2.51D-09 NDo=     1
 LinEq1:  Iter= 11 NonCon=     0 RMS=5.27D-11 Max=7.65D-10 NDo=     1
 Linear equations converged to 1.000D-10 1.000D-09 after    11 iterations.
 End of Minotr F.D. properties file   721 does not exist.
 End of Minotr F.D. properties file   722 does not exist.
 End of Minotr F.D. properties file   788 does not exist.
 Calling FoFJK, ICntrl=  10002127 FMM=F ISym2X=1 I1Cent= 0 IOpClX= 0 NMat=1 NMatS=1 NMatT=0.
 ***** Axes restored to original set *****
 -------------------------------------------------------------------
 Center     Atomic                   Forces (Hartrees/Bohr)
 Number     Number              X              Y              Z
 -------------------------------------------------------------------
      1        9          -0.000008567    0.000000000   -0.000000000
      2        1           0.000010047   -0.000000000    0.000000000
      3        7          -0.000016058    0.000000000    0.000000000
      4        1           0.000004859   -0.000000000    0.000001991
      5        1           0.000004859   -0.000001725   -0.000000996
      6        1           0.000004859    0.000001725   -0.000000996
 -------------------------------------------------------------------
 Cartesian Forces:  Max     0.000016058 RMS     0.000005349
 -----------------------------------------------------------------------------------------------
                       Internal Coordinate Forces (Hartree/Bohr or radian)
  Cent   Atom   N1       Length/X         N2         Alpha/Y        N3         Beta/Z          J
 -----------------------------------------------------------------------------------------------
      1  F 
         X        1   0.000000(     1)
      2  H        1   0.000010(     2)      2  -0.000000(     7)
      3  N        1  -0.000001(     3)      2   0.000000(     8)      3  -0.000000(    12)     0
      4  H        4   0.000004(     4)      3   0.000007(     9)      2   0.000000(    13)     0
      5  H        4   0.000004(     5)      3   0.000007(    10)      2   0.000000(    14)     0
      6  H        4   0.000004(     6)      3   0.000007(    11)      2  -0.000000(    15)     0
 -----------------------------------------------------------------------------------------------
 Internal  Forces:  Max     0.000010047 RMS     0.000004460

 GradGradGradGradGradGradGradGradGradGradGradGradGradGradGradGradGradGrad
 Berny optimization.
 Search for a local minimum.
 Step number   5 out of a maximum of   20
 All quantities printed in internal units (Hartrees-Bohrs-Radians)
 Update second derivatives using D2CorN and points    1    2    3    4    5

 DE= -4.70D-07 DEPred=-4.21D-07 R= 1.12D+00
 Trust test= 1.12D+00 RLast= 1.51D-03 DXMaxT set to 3.00D-01
 The second derivative matrix:
                          R1        A1        Rah       Rab
           R1           1.31451
           A1          -0.18525   0.40256
           Rah          0.00830   0.00573   0.58212
           Rab          0.00000   0.00000   0.00000   0.00100
 ITU=  0  1  1  1  0
     Eigenvalues ---    0.36612   0.58230   1.350771000.00000
 RFO step:  Lambda= 0.00000000D+00 EMin= 3.66120791D-01
 Quartic linear search produced a step of  0.04256.
 Variable       Old X    -DE/DX   Delta X   Delta X   Delta X     New X
                                 (Linear)    (Quad)   (Total)
    R1        1.91263   0.00001   0.00001   0.00000   0.00002   1.91264
    A1        1.95572   0.00002   0.00006  -0.00000   0.00006   1.95577
   Rah        1.74202   0.00001   0.00001   0.00001   0.00002   1.74204
   Rab       38.99658  -0.00000   0.00000   0.00000   0.00000  38.99658
         Item               Value     Threshold  Converged?
 Maximum Force            0.000022     0.000450     YES
 RMS     Force            0.000015     0.000300     YES
 Maximum Displacement     0.000059     0.001800     YES
 RMS     Displacement     0.000032     0.001200     YES
 Predicted change in Energy=-8.329969D-10
 Optimization completed.
    -- Stationary point found.
                       ----------------------------
                       !   Optimized Parameters   !
                       ! (Angstroms and Degrees)  !
 ----------------------                            ----------------------
 !      Name          Value   Derivative information (Atomic Units)     !
 ------------------------------------------------------------------------
 !       R1          1.0121   -DE/DX =    0.0                           !
 !       A1        112.0542   -DE/DX =    0.0                           !
 !       Rah         0.9218   -DE/DX =    0.0                           !
 !       Rab        20.6361   -DE/DX =    0.0                           !
 ------------------------------------------------------------------------
 GradGradGradGradGradGradGradGradGradGradGradGradGradGradGradGradGradGrad

 ---------------------------------------------------------------------------------------------------
                            Z-MATRIX (ANGSTROMS AND DEGREES)
   CD    Cent   Atom    N1       Length/X        N2       Alpha/Y        N3        Beta/Z          J
 ---------------------------------------------------------------------------------------------------
      1      1  F 
      2         X        1   1.000000(     1)
      3      2  H        1   0.921837(     2)      2   90.000(     7)
      4      3  N        1  20.636100(     3)      2   90.000(     8)      3    0.000(    12)      0
      5      4  H        4   1.012118(     4)      3  112.054(     9)      2    0.000(    13)      0
      6      5  H        4   1.012118(     5)      3  112.054(    10)      2  120.000(    14)      0
      7      6  H        4   1.012118(     6)      3  112.054(    11)      2 -120.000(    15)      0
 ---------------------------------------------------------------------------------------------------
                         Z-Matrix orientation:                         
 ---------------------------------------------------------------------
 Center     Atomic      Atomic             Coordinates (Angstroms)
 Number     Number       Type             X           Y           Z
 ---------------------------------------------------------------------
      1          9           0        0.000000    0.000000    0.000000
      2         -1           0        0.000000    0.000000    1.000000
      3          1           0        0.921837    0.000000    0.000000
      4          7           0       20.636100    0.000000    0.000000
      5          1           0       21.016134    0.000000    0.938060
      6          1           0       21.016134   -0.812384   -0.469030
      7          1           0       21.016134    0.812384   -0.469030
 ---------------------------------------------------------------------
                    Distance matrix (angstroms):
                    1          2          3          4          5
     1  F    0.000000
     2  X    1.000000   0.000000
     3  H    0.921837   1.360068   0.000000
     4  N   20.636100  20.660315  19.714263   0.000000
     5  H   21.037059  21.016225  20.116181   1.012118   0.000000
     6  H   21.037059  21.083072  20.116181   1.012118   1.624768
     7  H   21.037059  21.083072  20.116181   1.012118   1.624768
                    6          7
     6  H    0.000000
     7  H    1.624768   0.000000
 Stoichiometry    FH4N
 Framework group  C3V[C3(NHF),3SGV(H)]
 Deg. of freedom     4
 Full point group                 C3V     NOp   6
 Largest Abelian subgroup         CS      NOp   2
 Largest concise Abelian subgroup CS      NOp   2
                         Standard orientation:                         
 ---------------------------------------------------------------------
 Center     Atomic      Atomic             Coordinates (Angstroms)
 Number     Number       Type             X           Y           Z
 ---------------------------------------------------------------------
      1          9           0       -0.000000   -0.000000   10.421147
      2          1           0       -0.000000   -0.000000    9.499310
      3          7           0        0.000000    0.000000  -10.214953
      4          1           0        0.000000    0.938060  -10.594987
      5          1           0        0.812384   -0.469030  -10.594987
      6          1           0       -0.812384   -0.469030  -10.594987
 ---------------------------------------------------------------------
 Rotational constants (GHZ):         189.9544266           0.1286750           0.1286750

 **********************************************************************

            Population analysis using the SCF density.

 **********************************************************************

 Orbital symmetries:
       Occupied  (A1) (A1) (A1) (A1) (A1) (E) (E) (E) (E) (A1)
       Virtual   (A1) (A1) (E) (E) (A1) (A1) (A1) (E) (E) (E) (E)
                 (A1) (E) (E) (E) (E) (A1) (E) (E) (A1) (A2) (A1)
                 (E) (E) (A1) (A1) (E) (E) (E) (E) (A1) (E) (E)
                 (A1) (A1) (E) (E) (E) (E) (A1) (E) (E) (A1) (A2)
                 (E) (E) (A1) (E) (E) (A1) (E) (E) (E) (E) (A1)
                 (A2) (E) (E) (E) (E) (E) (E) (E) (E) (A1) (A1)
                 (E) (E) (A1) (E) (E) (A1) (E) (E) (E) (E) (A2)
                 (A1) (E) (E) (A1) (A1) (E) (E) (E) (E) (A1) (A2)
                 (E) (E) (A1) (E) (E) (A1) (A1) (E) (E) (E) (E)
                 (A1) (A2) (E) (E) (A1) (A1) (E) (E) (E) (E) (E)
                 (E) (A1) (A1) (E) (E) (E) (E) (A2) (A2) (E) (E)
                 (E) (E) (A1) (E) (E) (A1) (E) (E) (A1) (E) (E)
                 (E) (E) (E) (E) (A2) (A1) (A1) (E) (E) (A1) (A1)
                 (E) (E) (A1) (E) (E) (A1) (E) (E) (E) (E) (A2)
                 (A1) (E) (E) (A1) (E) (E) (A2) (A1) (E) (E) (E)
                 (E) (A1) (E) (E) (E) (E) (A1) (A1) (A1)
 The electronic state is 1-A1.
 Alpha  occ. eigenvalues --  -26.29906 -15.54225  -1.60065  -1.14297  -0.76633
 Alpha  occ. eigenvalues --   -0.64959  -0.64959  -0.62935  -0.62935  -0.42987
 Alpha virt. eigenvalues --    0.02905   0.03094   0.04820   0.04820   0.11729
 Alpha virt. eigenvalues --    0.13916   0.15192   0.16180   0.16180   0.20179
 Alpha virt. eigenvalues --    0.20179   0.20820   0.22098   0.22098   0.23486
 Alpha virt. eigenvalues --    0.23486   0.25407   0.28583   0.28583   0.31115
 Alpha virt. eigenvalues --    0.35547   0.35747   0.37015   0.37015   0.42712
 Alpha virt. eigenvalues --    0.42769   0.46036   0.46036   0.48635   0.48635
 Alpha virt. eigenvalues --    0.56303   0.60164   0.60164   0.70946   0.74871
 Alpha virt. eigenvalues --    0.76029   0.76029   0.78570   0.78570   0.81053
 Alpha virt. eigenvalues --    0.82760   0.82760   0.88277   0.90187   0.91403
 Alpha virt. eigenvalues --    0.91403   0.94905   0.98027   0.98027   1.03440
 Alpha virt. eigenvalues --    1.03507   1.03507   1.04186   1.04186   1.07072
 Alpha virt. eigenvalues --    1.08077   1.08566   1.08566   1.10333   1.10333
 Alpha virt. eigenvalues --    1.14158   1.14158   1.14547   1.14547   1.14983
 Alpha virt. eigenvalues --    1.18503   1.21874   1.21874   1.32133   1.36257
 Alpha virt. eigenvalues --    1.36257   1.61605   1.66735   1.66735   1.75841
 Alpha virt. eigenvalues --    1.75841   1.76189   1.86389   1.86404   1.86404
 Alpha virt. eigenvalues --    1.98025   2.00278   2.04053   2.04053   2.04865
 Alpha virt. eigenvalues --    2.04865   2.27079   2.34377   2.37295   2.37295
 Alpha virt. eigenvalues --    2.38927   2.43612   2.43612   2.47340   2.73802
 Alpha virt. eigenvalues --    2.80878   2.80878   2.90358   2.90358   2.93500
 Alpha virt. eigenvalues --    2.93500   3.15882   3.15882   3.16036   3.38834
 Alpha virt. eigenvalues --    3.56080   3.56080   3.62362   3.62362   3.96910
 Alpha virt. eigenvalues --    3.96910   4.04244   4.08536   4.14027   4.14027
 Alpha virt. eigenvalues --    4.16112   4.16112   4.21370   4.21926   4.25953
 Alpha virt. eigenvalues --    4.25953   4.30197   4.30197   4.32283   4.35921
 Alpha virt. eigenvalues --    4.35921   4.47138   4.54898   4.54898   4.69032
 Alpha virt. eigenvalues --    4.74556   4.74556   4.76824   4.76824   4.93907
 Alpha virt. eigenvalues --    4.93907   4.98192   5.05447   5.06281   5.06283
 Alpha virt. eigenvalues --    5.06283   5.25139   5.64680   5.67052   5.67052
 Alpha virt. eigenvalues --    5.73122   5.89837   5.89837   6.05995   6.06286
 Alpha virt. eigenvalues --    6.06286   6.32361   6.32361   6.42663   6.63038
 Alpha virt. eigenvalues --    6.93777   6.93777   7.53929   7.68648   7.68648
 Alpha virt. eigenvalues --    8.83036   8.83036   8.91941   8.91941   9.23537
 Alpha virt. eigenvalues --    9.23537   9.34396   9.35916   9.35916   9.54924
 Alpha virt. eigenvalues --    9.54924   9.87561  14.56572  17.24508
          Condensed to atoms (all electrons):
               1          2          3          4          5          6
     1  F    9.203106   0.174936  -0.000000   0.000000   0.000000   0.000000
     2  H    0.174936   0.447022   0.000000  -0.000000  -0.000000  -0.000000
     3  N   -0.000000   0.000000   6.587494   0.336370   0.336370   0.336370
     4  H    0.000000  -0.000000   0.336370   0.461321   0.001720   0.001720
     5  H    0.000000  -0.000000   0.336370   0.001720   0.461321   0.001720
     6  H    0.000000  -0.000000   0.336370   0.001720   0.001720   0.461321
 Mulliken charges:
               1
     1  F   -0.378042
     2  H    0.378042
     3  N   -0.596606
     4  H    0.198869
     5  H    0.198869
     6  H    0.198869
 Sum of Mulliken charges =  -0.00000
 Mulliken charges with hydrogens summed into heavy atoms:
               1
     1  F   -0.000000
     3  N   -0.000000
 Electronic spatial extent (au):  <R**2>=           7665.1825
 Charge=             -0.0000 electrons
 Dipole moment (field-independent basis, Debye):
    X=             -0.0000    Y=             -0.0000    Z=             -3.5482  Tot=              3.5482
 Quadrupole moment (field-independent basis, Debye-Ang):
   XX=            -11.9236   YY=            -11.9236   ZZ=            -19.4397
   XY=             -0.0000   XZ=              0.0000   YZ=              0.0000
 Traceless Quadrupole moment (field-independent basis, Debye-Ang):
   XX=              2.5054   YY=              2.5054   ZZ=             -5.0107
   XY=             -0.0000   XZ=              0.0000   YZ=              0.0000
 Octapole moment (field-independent basis, Debye-Ang**2):
  XXX=             -0.0000  YYY=              0.9738  ZZZ=           -961.2670  XYY=              0.0000
  XXY=             -0.9738  XXZ=              4.3221  XZZ=             -0.0000  YZZ=             -0.0000
  YYZ=              4.3221  XYZ=              0.0000
 Hexadecapole moment (field-independent basis, Debye-Ang**3):
 XXXX=            -13.7718 YYYY=            -13.7718 ZZZZ=          -9643.7174 XXXY=              0.0000
 XXXZ=              0.0000 YYYX=              0.0000 YYYZ=            -10.4177 ZZZX=              0.0000
 ZZZY=              0.0000 XXYY=             -4.5906 XXZZ=          -1261.6307 YYZZ=          -1261.6307
 XXYZ=             10.4177 YYXZ=             -0.0000 ZZXY=             -0.0000
 N-N= 1.968468245220D+01 E-N=-4.113439852148D+02  KE= 1.560902984739D+02
 Symmetry A'   KE= 1.472117948744D+02
 Symmetry A"   KE= 8.878503599476D+00
 Breneman (CHELPG) radii used.
 Generate Potential Derived Charges using the Breneman model, NDens= 1.
 Grid spacing= 0.300 Box extension= 2.800
 NStep X,Y,Z=   26     25     90   Total possible points=       58500
 Number of Points to Fit=    7950

 **********************************************************************

            Electrostatic Properties Using The SCF Density

 **********************************************************************

       Atomic Center    1 is at  -0.000000 -0.000000 10.421147
       Atomic Center    2 is at  -0.000000 -0.000000  9.499310
       Atomic Center    3 is at   0.000000  0.000000-10.214953
       Atomic Center    4 is at   0.000000  0.938060-10.594987
       Atomic Center    5 is at   0.812384 -0.469030-10.594987
       Atomic Center    6 is at  -0.812384 -0.469030-10.594987
    7950 points will be used for fitting atomic charges
 Fitting point charges to electrostatic potential
 Charges from ESP fit, RMS=   0.00339 RRMS=   0.18108:
 ESP charges:
               1
     1  F   -0.443097
     2  H    0.441558
     3  N   -0.911211
     4  H    0.303752
     5  H    0.304500
     6  H    0.304500
 Sum of ESP charges =   0.00000
 ESP charges with hydrogens summed into heavy atoms:
               1
     1  F   -0.001539
     3  N    0.001539
 Charge=   0.00000 Dipole=     0.0000    -0.0034    -3.7738 Tot=     3.7738
 -----------------------------------------------------------------

              Electrostatic Properties (Atomic Units)

 -----------------------------------------------------------------
    Center     Electric         -------- Electric Field --------
               Potential          X             Y             Z
 -----------------------------------------------------------------
    1 Atom    -26.581870
    2 Atom     -0.915772
    3 Atom    -18.374831
    4 Atom     -1.066064
    5 Atom     -1.066064
    6 Atom     -1.066064
 -----------------------------------------------------------------
 1\1\GINC-N2109\POpt\RMP2-FC\Aug-CC-pVTZ\F1H4N1\GDS001\09-Mar-2024\1\\#
  mp2/aug-cc-pVTZ pop=ChelpG opt=z-matrix\\Title: Rab = 20.6361 Optimiz
 ation\\0,1\F\X,1,1.\H,1,Rah,2,90.\N,1,Rab,2,90.,3,0.,0\H,4,R1,3,A1,2,0
 .,0\H,4,R1,3,A1,2,120.,0\H,4,R1,3,A1,2,-120.,0\\R1=1.01211796\A1=112.0
 5422832\Rah=0.92183713\Rab=20.6361\\Version=ES64L-G16RevA.03\State=1-A
 1\HF=-156.281178\MP2=-156.8014495\RMSD=9.309e-09\RMSF=5.349e-06\Dipole
 =1.3104031,0.,0.\PG=C03V [C3(N1H1F1),3SGV(H1)]\\@


 IN THE WOODS WE RETURN TO REASON AND FAITH.

                                 -- EMERSON
 Job cpu time:       0 days  0 hours 16 minutes  3.2 seconds.
 Elapsed time:       0 days  0 hours  0 minutes 46.2 seconds.
 File lengths (MBytes):  RWF=     72 Int=      0 D2E=      0 Chk=      8 Scr=      8
 Normal termination of Gaussian 16 at Sat Mar  9 11:19:54 2024.
