 Entering Gaussian System, Link 0=g16
 Input=h2o_nh3_linear_mp2_avtz_opt_freq.gjf
 Output=h2o_nh3_linear_mp2_avtz_opt_freq.log
 Initial command:
 /sw/contrib/gaussian/g16/A03/g16/l1.exe "/gscratch/scrubbed/gds001/Gau-17618.inp" -scrdir="/gscratch/scrubbed/gds001/"
 Entering Link 1 = /sw/contrib/gaussian/g16/A03/g16/l1.exe PID=     17619.
  
 Copyright (c) 1988,1990,1992,1993,1995,1998,2003,2009,2016,
            Gaussian, Inc.  All Rights Reserved.
  
 This is part of the Gaussian(R) 16 program.  It is based on
 the Gaussian(R) 09 system (copyright 2009, Gaussian, Inc.),
 the Gaussian(R) 03 system (copyright 2003, Gaussian, Inc.),
 the Gaussian(R) 98 system (copyright 1998, Gaussian, Inc.),
 the Gaussian(R) 94 system (copyright 1995, Gaussian, Inc.),
 the Gaussian 92(TM) system (copyright 1992, Gaussian, Inc.),
 the Gaussian 90(TM) system (copyright 1990, Gaussian, Inc.),
 the Gaussian 88(TM) system (copyright 1988, Gaussian, Inc.),
 the Gaussian 86(TM) system (copyright 1986, Carnegie Mellon
 University), and the Gaussian 82(TM) system (copyright 1983,
 Carnegie Mellon University). Gaussian is a federally registered
 trademark of Gaussian, Inc.
  
 This software contains proprietary and confidential information,
 including trade secrets, belonging to Gaussian, Inc.
  
 This software is provided under written license and may be
 used, copied, transmitted, or stored only in accord with that
 written license.
  
 The following legend is applicable only to US Government
 contracts under FAR:
  
                    RESTRICTED RIGHTS LEGEND
  
 Use, reproduction and disclosure by the US Government is
 subject to restrictions as set forth in subparagraphs (a)
 and (c) of the Commercial Computer Software - Restricted
 Rights clause in FAR 52.227-19.
  
 Gaussian, Inc.
 340 Quinnipiac St., Bldg. 40, Wallingford CT 06492
  
  
 ---------------------------------------------------------------
 Warning -- This program may not be used in any manner that
 competes with the business of Gaussian, Inc. or will provide
 assistance to any competitor of Gaussian, Inc.  The licensee
 of this program is prohibited from giving any competitor of
 Gaussian, Inc. access to this program.  By using this program,
 the user acknowledges that Gaussian, Inc. is engaged in the
 business of creating and licensing software in the field of
 computational chemistry and represents and warrants to the
 licensee that it is not a competitor of Gaussian, Inc. and that
 it will not use this program in any manner prohibited above.
 ---------------------------------------------------------------
  

 Cite this work as:
 Gaussian 16, Revision A.03,
 M. J. Frisch, G. W. Trucks, H. B. Schlegel, G. E. Scuseria, 
 M. A. Robb, J. R. Cheeseman, G. Scalmani, V. Barone, 
 G. A. Petersson, H. Nakatsuji, X. Li, M. Caricato, A. V. Marenich, 
 J. Bloino, B. G. Janesko, R. Gomperts, B. Mennucci, H. P. Hratchian, 
 J. V. Ortiz, A. F. Izmaylov, J. L. Sonnenberg, D. Williams-Young, 
 F. Ding, F. Lipparini, F. Egidi, J. Goings, B. Peng, A. Petrone, 
 T. Henderson, D. Ranasinghe, V. G. Zakrzewski, J. Gao, N. Rega, 
 G. Zheng, W. Liang, M. Hada, M. Ehara, K. Toyota, R. Fukuda, 
 J. Hasegawa, M. Ishida, T. Nakajima, Y. Honda, O. Kitao, H. Nakai, 
 T. Vreven, K. Throssell, J. A. Montgomery, Jr., J. E. Peralta, 
 F. Ogliaro, M. J. Bearpark, J. J. Heyd, E. N. Brothers, K. N. Kudin, 
 V. N. Staroverov, T. A. Keith, R. Kobayashi, J. Normand, 
 K. Raghavachari, A. P. Rendell, J. C. Burant, S. S. Iyengar, 
 J. Tomasi, M. Cossi, J. M. Millam, M. Klene, C. Adamo, R. Cammi, 
 J. W. Ochterski, R. L. Martin, K. Morokuma, O. Farkas, 
 J. B. Foresman, and D. J. Fox, Gaussian, Inc., Wallingford CT, 2016.
 
 ******************************************
 Gaussian 16:  ES64L-G16RevA.03 25-Dec-2016
                 5-Jun-2023 
 ******************************************
 %nprocshared=28
 Will use up to   28 processors via shared memory.
 %mem=41GB
 ----------------------------------------------------------------------
 # mp2/aug-cc-pVTZ opt=(z-matrix,Tight,CalcAll,MaxStep=1,MaxCycles=1000
 00) freq
 ----------------------------------------------------------------------
 1/6=100000,7=10,8=1,10=4,18=40,38=1/1,3;
 2/12=2,17=6,18=5,29=3,40=1/2;
 3/5=16,6=1,7=10,11=9,25=1,30=1,71=2,140=1/1,2,3;
 4//1;
 5/5=2,38=5/2;
 8/6=3,8=1,10=1,19=11,30=-1/1;
 9/15=3,16=-3/6;
 11/6=1,8=1,15=11,17=12,24=-1,27=1,28=-2,29=300,32=6,42=3/1,2,10;
 10/6=2,21=1/2;
 8/6=4,8=1,10=1,19=11,30=-1/11,4;
 10/5=1,20=4/2;
 11/12=2,14=11,16=1,17=2,28=-2,42=3/2,10,12;
 6/7=2,8=2,9=2,10=2,18=1/1;
 7/10=1,12=2,25=1,44=2/1,2,3,16;
 1/6=100000,7=10,8=1,10=4,18=40/3(3);
 2/29=3/2;
 7/8=1,9=1,25=1,44=-1/16;
 99//99;
 2/29=3/2;
 3/5=16,6=1,7=10,11=9,25=1,30=1,71=2,140=1/1,2,3;
 4/5=5,16=3,69=1/1;
 5/5=2,38=5/2;
 8/6=3,8=1,10=1,19=11,30=-1/1;
 9/15=3,16=-3/6;
 11/6=1,8=1,15=11,17=12,24=-1,27=1,28=-2,29=300,32=6,42=3/1,2,10;
 10/6=2,21=1/2;
 8/6=4,8=1,10=1,19=11,30=-1/11,4;
 10/5=1,20=4/2;
 11/12=2,14=11,16=1,17=2,28=-2,42=3/2,10,12;
 7/10=1,12=2,25=1,44=2/1,2,3,16;
 1/6=100000,7=10,8=1,10=4,18=40/3(-12);
 2/29=3/2;
 6/7=2,8=2,9=2,10=2,18=1/1;
 7/8=1,9=1,25=1,44=-1/16;
 99//99;
 -------------------
 Optimizaiton Linear
 -------------------
 Symbolic Z-matrix:
 Charge =  0 Multiplicity = 1
 O1
 X2                   1     1. 
 H3                   1    Rah      2     90. 
 N4                   1    Rab      2     90.      3     0.       0
 H5                   1    R1       2     90.      3    A1       0
 H6                   4    R2       1    A2       2    -90.      0
 H7                   4    R3       1    A3       6    D1       0
 H8                   4    R3       1    A3       6    -D1      0
       Variables:
  R1                    0.9602                   
  R2                    1.0129                   
  R3                    1.0124                   
  A1                  104.745                    
  A2                   99.477                    
  A3                  117.664                    
  D1                  120.                       
  Rah                   0.975                    
  Rab                   2.9223                   
 

 GradGradGradGradGradGradGradGradGradGradGradGradGradGradGradGradGradGrad
 Berny optimization.
 Initialization pass.
                       ----------------------------
                       !    Initial Parameters    !
                       ! (Angstroms and Degrees)  !
 ----------------------                            ----------------------
 !      Name          Value   Derivative information (Atomic Units)     !
 ------------------------------------------------------------------------
 !       R1          0.9602   calculate D2E/DX2 analytically            !
 !       R2          1.0129   calculate D2E/DX2 analytically            !
 !       R3          1.0124   calculate D2E/DX2 analytically            !
 !       A1        104.745    calculate D2E/DX2 analytically            !
 !       A2         99.477    calculate D2E/DX2 analytically            !
 !       A3        117.664    calculate D2E/DX2 analytically            !
 !       D1        120.0      calculate D2E/DX2 analytically            !
 !       Rah         0.975    calculate D2E/DX2 analytically            !
 !       Rab         2.9223   calculate D2E/DX2 analytically            !
 ------------------------------------------------------------------------
 Trust Radius=1.00D-02 FncErr=1.00D-07 GrdErr=1.00D-07 EigMax=2.50D+02 EigMin=1.00D-04
 Number of steps in this run=    100 maximum allowed number of steps=    100.
 GradGradGradGradGradGradGradGradGradGradGradGradGradGradGradGradGradGrad

 ---------------------------------------------------------------------------------------------------
                            Z-MATRIX (ANGSTROMS AND DEGREES)
   CD    Cent   Atom    N1       Length/X        N2       Alpha/Y        N3        Beta/Z          J
 ---------------------------------------------------------------------------------------------------
      1      1  O 
      2         X        1   1.000000(     1)
      3      2  H        1   0.975000(     2)      2   90.000(     8)
      4      3  N        1   2.922300(     3)      2   90.000(     9)      3    0.000(    14)      0
      5      4  H        1   0.960200(     4)      2   90.000(    10)      3  104.745(    15)      0
      6      5  H        4   1.012900(     5)      1   99.477(    11)      2  -90.000(    16)      0
      7      6  H        4   1.012400(     6)      1  117.664(    12)      6  120.000(    17)      0
      8      7  H        4   1.012400(     7)      1  117.664(    13)      6 -120.000(    18)      0
 ---------------------------------------------------------------------------------------------------
                         Z-Matrix orientation:                         
 ---------------------------------------------------------------------
 Center     Atomic      Atomic             Coordinates (Angstroms)
 Number     Number       Type             X           Y           Z
 ---------------------------------------------------------------------
      1          8           0        0.000000    0.000000    0.000000
      2         -1           0        0.000000    0.000000    1.000000
      3          1           0        0.975000    0.000000    0.000000
      4          7           0        2.922300    0.000000    0.000000
      5          1           0       -0.244388   -0.928579    0.000000
      6          1           0        3.089076    0.999076    0.000000
      7          1           0        3.392343   -0.448334    0.776537
      8          1           0        3.392343   -0.448334   -0.776537
 ---------------------------------------------------------------------
                    Distance matrix (angstroms):
                    1          2          3          4          5
     1  O    0.000000
     2  X    1.000000   0.000000
     3  H    0.975000   1.396648   0.000000
     4  N    2.922300   3.088663   1.947300   0.000000
     5  H    0.960200   1.386356   1.532699   3.300026   0.000000
     6  H    3.246620   3.397137   2.338262   1.012900   3.850692
     7  H    3.508846   3.429129   2.578286   1.012400   3.749594
     8  H    3.508846   3.855526   2.578286   1.012400   3.749594
                    6          7          8
     6  H    0.000000
     7  H    1.670322   0.000000
     8  H    1.670322   1.553075   0.000000
 Stoichiometry    H5NO
 Framework group  CS[SG(H3NO),X(H2)]
 Deg. of freedom    10
 Full point group                 CS      NOp   2
 Largest Abelian subgroup         CS      NOp   2
 Largest concise Abelian subgroup CS      NOp   2
                         Standard orientation:                         
 ---------------------------------------------------------------------
 Center     Atomic      Atomic             Coordinates (Angstroms)
 Number     Number       Type             X           Y           Z
 ---------------------------------------------------------------------
      1          8           0        0.041309    1.553024    0.000000
      2          1           0        0.041309    0.578024    0.000000
      3          7           0        0.041309   -1.369276    0.000000
      4          1           0       -0.887270    1.797411    0.000000
      5          1           0        1.040384   -1.536052    0.000000
      6          1           0       -0.407025   -1.839319    0.776537
      7          1           0       -0.407025   -1.839319   -0.776537
 ---------------------------------------------------------------------
 Rotational constants (GHZ):         146.6625953           6.4262387           6.3443600
 Standard basis: Aug-CC-pVTZ (5D, 7F)
 There are   153 symmetry adapted cartesian basis functions of A'  symmetry.
 There are    82 symmetry adapted cartesian basis functions of A"  symmetry.
 There are   131 symmetry adapted basis functions of A'  symmetry.
 There are    76 symmetry adapted basis functions of A"  symmetry.
   207 basis functions,   279 primitive gaussians,   235 cartesian basis functions
    10 alpha electrons       10 beta electrons
       nuclear repulsion energy        38.9840484285 Hartrees.
 NAtoms=    7 NActive=    7 NUniq=    6 SFac= 1.36D+00 NAtFMM=   60 NAOKFM=F Big=F
 Integral buffers will be    131072 words long.
 Raffenetti 1 integral format.
 Two-electron integral symmetry is turned on.
 One-electron integrals computed using PRISM.
 NBasis=   207 RedAO= T EigKep=  1.04D-04  NBF=   131    76
 NBsUse=   207 1.00D-06 EigRej= -1.00D+00 NBFU=   131    76
 ExpMin= 2.53D-02 ExpMax= 1.53D+04 ExpMxC= 5.22D+02 IAcc=3 IRadAn=         5 AccDes= 0.00D+00
 Harris functional with IExCor=  205 and IRadAn=       5 diagonalized for initial guess.
 HarFok:  IExCor=  205 AccDes= 0.00D+00 IRadAn=         5 IDoV= 1 UseB2=F ITyADJ=14
 ICtDFT=  3500011 ScaDFX=  1.000000  1.000000  1.000000  1.000000
 FoFCou: FMM=F IPFlag=           0 FMFlag=      100000 FMFlg1=           0
         NFxFlg=           0 DoJE=T BraDBF=F KetDBF=T FulRan=T
         wScrn=  0.000000 ICntrl=       500 IOpCl=  0 I1Cent=   200000004 NGrid=           0
         NMat0=    1 NMatS0=      1 NMatT0=    0 NMatD0=    1 NMtDS0=    0 NMtDT0=    0
 Petite list used in FoFCou.
 Initial guess orbital symmetries:
       Occupied  (A') (A') (A') (A') (A') (A') (A") (A') (A") (A')
       Virtual   (A') (A') (A') (A") (A') (A") (A') (A') (A') (A')
                 (A") (A') (A") (A') (A') (A') (A") (A') (A") (A')
                 (A') (A') (A") (A') (A") (A') (A") (A') (A") (A')
                 (A') (A') (A') (A") (A') (A") (A') (A') (A') (A')
                 (A") (A') (A") (A") (A') (A') (A') (A') (A') (A")
                 (A") (A") (A') (A") (A') (A') (A") (A') (A") (A')
                 (A") (A') (A') (A") (A') (A') (A") (A') (A') (A')
                 (A") (A') (A") (A") (A') (A') (A') (A") (A') (A")
                 (A') (A") (A') (A') (A") (A') (A") (A') (A') (A")
                 (A") (A') (A') (A') (A') (A") (A') (A") (A') (A')
                 (A") (A') (A") (A') (A") (A") (A') (A') (A') (A")
                 (A') (A") (A') (A') (A') (A") (A') (A') (A") (A')
                 (A') (A") (A') (A') (A') (A") (A') (A') (A") (A")
                 (A") (A') (A") (A") (A') (A') (A") (A') (A") (A")
                 (A") (A') (A') (A") (A') (A') (A") (A') (A') (A')
                 (A") (A') (A') (A') (A") (A") (A') (A') (A') (A")
                 (A") (A') (A') (A') (A') (A") (A") (A') (A') (A")
                 (A') (A') (A') (A") (A') (A') (A") (A') (A") (A')
                 (A') (A") (A') (A") (A") (A') (A") (A') (A") (A')
                 (A') (A") (A') (A') (A') (A') (A')
 The electronic state of the initial guess is 1-A'.
 Keep R1 ints in memory in symmetry-blocked form, NReq=348312711.
 Requested convergence on RMS density matrix=1.00D-08 within 128 cycles.
 Requested convergence on MAX density matrix=1.00D-06.
 Requested convergence on             energy=1.00D-06.
 No special actions if energy rises.
 SCF Done:  E(RHF) =  -132.284771790     A.U. after   10 cycles
            NFock= 10  Conv=0.67D-08     -V/T= 2.0015
 ExpMin= 2.53D-02 ExpMax= 1.53D+04 ExpMxC= 5.22D+02 IAcc=3 IRadAn=         5 AccDes= 0.00D+00
 HarFok:  IExCor=  205 AccDes= 0.00D+00 IRadAn=         5 IDoV=-2 UseB2=F ITyADJ=14
 ICtDFT= 12500011 ScaDFX=  1.000000  1.000000  1.000000  1.000000
 Range of M.O.s used for correlation:     3   207
 NBasis=   207 NAE=    10 NBE=    10 NFC=     2 NFV=     0
 NROrb=    205 NOA=     8 NOB=     8 NVA=   197 NVB=   197

 **** Warning!!: The largest alpha MO coefficient is  0.27096661D+02

 Disk-based method using ON**2 memory for  8 occupieds at a time.
 Permanent disk used for amplitudes=     4749670 words.
 Estimated scratch disk usage=   149720108 words.
 Actual    scratch disk usage=   146574380 words.
 JobTyp=1 Pass  1:  I=   3 to  10 NPSUse= 28 ParTrn=T ParDer=T DoDerP=T.
 (rs|ai) integrals will be sorted in core.
 Spin components of T(2) and E(2):
     alpha-alpha T2 =       0.1636646482D-01 E2=     -0.6024128724D-01
     alpha-beta  T2 =       0.9862970769D-01 E2=     -0.3926946309D+00
     beta-beta   T2 =       0.1636646482D-01 E2=     -0.6024128724D-01
 ANorm=    0.1063655319D+01
 E2 =    -0.5131772054D+00 EUMP2 =    -0.13279794899548D+03
 G2DrvN: will do     8 centers at a time, making    1 passes.
 Calling FoFCou, ICntrl=  3107 FMM=F I1Cent=   0 AccDes= 0.00D+00.
 End of G2Drv F.D. properties file   721 does not exist.
 End of G2Drv F.D. properties file   722 does not exist.
 End of G2Drv F.D. properties file   788 does not exist.
          IDoAtm=1111111
          Differentiating once with respect to electric field.
                with respect to dipole field.
          Differentiating once with respect to nuclear coordinates.
 Keep R1 ints in memory in symmetry-blocked form, NReq=348314073.
          There are    24 degrees of freedom in the 1st order CPHF.  IDoFFX=6 NUNeed=    24.
     21 vectors produced by pass  0 Test12= 8.21D-15 4.17D-09 XBig12= 5.04D+00 7.87D-01.
 AX will form    21 AO Fock derivatives at one time.
     21 vectors produced by pass  1 Test12= 8.21D-15 4.17D-09 XBig12= 1.64D-01 1.12D-01.
     21 vectors produced by pass  2 Test12= 8.21D-15 4.17D-09 XBig12= 3.99D-03 1.83D-02.
     21 vectors produced by pass  3 Test12= 8.21D-15 4.17D-09 XBig12= 4.63D-05 1.21D-03.
     21 vectors produced by pass  4 Test12= 8.21D-15 4.17D-09 XBig12= 3.81D-07 1.21D-04.
     21 vectors produced by pass  5 Test12= 8.21D-15 4.17D-09 XBig12= 3.81D-09 8.81D-06.
     17 vectors produced by pass  6 Test12= 8.21D-15 4.17D-09 XBig12= 1.77D-11 7.54D-07.
      3 vectors produced by pass  7 Test12= 8.21D-15 4.17D-09 XBig12= 8.94D-14 4.54D-08.
 InvSVY:  IOpt=1 It=  1 EMax= 1.33D-15
 Solved reduced A of dimension   146 with    24 vectors.
 End of Minotr F.D. properties file   721 does not exist.
 End of Minotr F.D. properties file   722 does not exist.
 End of Minotr F.D. properties file   788 does not exist.
 MDV=  5502926848.
 Form MO integral derivatives with frozen-active canonical formalism.
 Discarding MO integrals.
 Reordered first order wavefunction length =      7761800
 In DefCFB: NBatch=  1 ICI= 10 ICA=197 LFMax= 66
            Large arrays: LIAPS=   383322600 LIARS=   178235750 words.
 Semi-Direct transformation.
 ModeAB=           4 MOrb=            10 LenV=    5501728787
 LASXX=     42872175 LTotXX=    42872175 LenRXX=    86358025
 LTotAB=    43485850 MaxLAS=    47367810 LenRXY=           0
 NonZer=   129230200 LenScr=   193986560 LnRSAI=    47367810
 LnScr1=    71303168 LExtra=           0 Total=    399015563
 MaxDsk=          -1 SrtSym=           T ITran=            4
 JobTyp=0 Pass  1:  I=   1 to  10.
 (rs|ai) integrals will be sorted in core.
 Spin components of T(2) and E(2):
     alpha-alpha T2 =       0.1636646482D-01 E2=     -0.6024128724D-01
     alpha-beta  T2 =       0.9862970769D-01 E2=     -0.3926946309D+00
     beta-beta   T2 =       0.1636646482D-01 E2=     -0.6024128724D-01
 ANorm=    0.1504235778D+01
 E2 =    -0.5131772054D+00 EUMP2 =    -0.13279794899548D+03
          IDoAtm=1111111
          Differentiating once with respect to electric field.
                with respect to dipole field.
          Differentiating once with respect to nuclear coordinates.
          There are     1 degrees of freedom in the 1st order CPHF.  IDoFFX=0 NUNeed=     1.
 LinEq1:  Iter=  0 NonCon=     1 RMS=2.94D-03 Max=3.67D-02 NDo=     1
 LinEq1:  Iter=  1 NonCon=     1 RMS=6.24D-04 Max=6.98D-03 NDo=     1
 LinEq1:  Iter=  2 NonCon=     1 RMS=2.85D-04 Max=4.36D-03 NDo=     1
 LinEq1:  Iter=  3 NonCon=     1 RMS=3.65D-05 Max=2.64D-04 NDo=     1
 LinEq1:  Iter=  4 NonCon=     1 RMS=5.75D-06 Max=4.78D-05 NDo=     1
 LinEq1:  Iter=  5 NonCon=     1 RMS=1.89D-06 Max=1.98D-05 NDo=     1
 LinEq1:  Iter=  6 NonCon=     1 RMS=7.31D-07 Max=6.29D-06 NDo=     1
 LinEq1:  Iter=  7 NonCon=     1 RMS=1.50D-07 Max=1.46D-06 NDo=     1
 LinEq1:  Iter=  8 NonCon=     1 RMS=2.05D-08 Max=1.93D-07 NDo=     1
 LinEq1:  Iter=  9 NonCon=     1 RMS=4.05D-09 Max=3.32D-08 NDo=     1
 LinEq1:  Iter= 10 NonCon=     1 RMS=6.87D-10 Max=6.08D-09 NDo=     1
 LinEq1:  Iter= 11 NonCon=     1 RMS=9.23D-11 Max=1.04D-09 NDo=     1
 LinEq1:  Iter= 12 NonCon=     0 RMS=1.63D-11 Max=1.27D-10 NDo=     1
 Linear equations converged to 1.000D-10 1.000D-09 after    12 iterations.
 End of Minotr F.D. properties file   721 does not exist.
 End of Minotr F.D. properties file   722 does not exist.
 End of Minotr F.D. properties file   788 does not exist.
 Symmetrizing basis deriv contribution to polar:
 IMax=3 JMax=2 DiffMx= 0.00D+00
 G2DrvN: will do     8 centers at a time, making    1 passes.
 Calling FoFCou, ICntrl=  3107 FMM=F I1Cent=   0 AccDes= 0.00D+00.
 End of G2Drv F.D. properties file   721 does not exist.
 End of G2Drv F.D. properties file   722 does not exist.
 End of G2Drv F.D. properties file   788 does not exist.
 R2 and R3 integrals will be kept in memory, NReq=   775552640.
 DD1Dir will call FoFMem   1 times, MxPair=       110
 NAB=    55 NAA=     0 NBB=     0.
 Discarding MO integrals.

 **********************************************************************

            Population analysis using the SCF density.

 **********************************************************************

 Orbital symmetries:
       Occupied  (A') (A') (A') (A') (A') (A') (A") (A') (A") (A')
       Virtual   (A') (A") (A') (A') (A') (A') (A') (A") (A') (A")
                 (A') (A') (A') (A") (A') (A") (A') (A') (A") (A')
                 (A") (A') (A') (A') (A") (A") (A') (A') (A") (A')
                 (A') (A') (A') (A") (A') (A") (A') (A') (A') (A')
                 (A") (A") (A') (A") (A') (A') (A") (A') (A') (A")
                 (A') (A") (A') (A") (A') (A') (A') (A") (A") (A')
                 (A") (A') (A") (A') (A') (A') (A") (A') (A") (A")
                 (A') (A') (A') (A') (A") (A') (A') (A") (A') (A")
                 (A') (A") (A') (A') (A") (A') (A") (A') (A") (A')
                 (A") (A') (A') (A') (A') (A") (A') (A') (A") (A')
                 (A") (A") (A') (A") (A') (A") (A') (A') (A') (A')
                 (A") (A") (A') (A') (A') (A") (A') (A') (A") (A')
                 (A') (A") (A') (A') (A') (A") (A") (A') (A") (A')
                 (A") (A') (A") (A') (A') (A") (A") (A') (A") (A")
                 (A') (A") (A') (A") (A') (A') (A") (A') (A') (A")
                 (A') (A') (A') (A') (A") (A') (A") (A') (A") (A')
                 (A") (A') (A') (A') (A') (A") (A") (A') (A') (A")
                 (A') (A') (A") (A') (A') (A') (A") (A') (A') (A")
                 (A") (A') (A') (A") (A") (A") (A') (A') (A") (A')
                 (A') (A") (A') (A') (A') (A') (A')
 The electronic state is 1-A'.
 Alpha  occ. eigenvalues --  -20.52300 -15.56634  -1.30793  -1.16913  -0.68206
 Alpha  occ. eigenvalues --   -0.66717  -0.63955  -0.55063  -0.46853  -0.45361
 Alpha virt. eigenvalues --    0.02204   0.04441   0.04451   0.05147   0.07846
 Alpha virt. eigenvalues --    0.13352   0.13994   0.15199   0.15684   0.17869
 Alpha virt. eigenvalues --    0.18067   0.19831   0.20586   0.20990   0.22615
 Alpha virt. eigenvalues --    0.24852   0.25646   0.30047   0.30080   0.33832
 Alpha virt. eigenvalues --    0.34605   0.35093   0.37538   0.38508   0.38655
 Alpha virt. eigenvalues --    0.40266   0.40539   0.43158   0.44675   0.45216
 Alpha virt. eigenvalues --    0.46590   0.49395   0.51594   0.53861   0.57710
 Alpha virt. eigenvalues --    0.60392   0.61578   0.63282   0.71110   0.74088
 Alpha virt. eigenvalues --    0.74312   0.76483   0.76847   0.79170   0.80341
 Alpha virt. eigenvalues --    0.84599   0.88515   0.89182   0.90363   0.92426
 Alpha virt. eigenvalues --    0.93020   0.94385   0.95530   0.96648   0.97244
 Alpha virt. eigenvalues --    0.98631   0.99677   1.00490   1.00976   1.02803
 Alpha virt. eigenvalues --    1.04882   1.06373   1.07735   1.08473   1.10961
 Alpha virt. eigenvalues --    1.14537   1.16773   1.18169   1.22302   1.23919
 Alpha virt. eigenvalues --    1.24285   1.24824   1.28794   1.31131   1.31880
 Alpha virt. eigenvalues --    1.35580   1.41987   1.44552   1.46393   1.53104
 Alpha virt. eigenvalues --    1.53520   1.57857   1.62118   1.64755   1.68931
 Alpha virt. eigenvalues --    1.69780   1.73480   1.77060   1.86909   1.87554
 Alpha virt. eigenvalues --    1.88873   1.91392   1.98795   1.99778   2.04424
 Alpha virt. eigenvalues --    2.04537   2.07817   2.12881   2.13937   2.21077
 Alpha virt. eigenvalues --    2.32279   2.33179   2.39819   2.40649   2.42017
 Alpha virt. eigenvalues --    2.42723   2.43575   2.48492   2.50233   2.51882
 Alpha virt. eigenvalues --    2.51904   2.60610   2.63873   2.65491   2.77163
 Alpha virt. eigenvalues --    2.80820   2.90014   2.97523   3.01923   3.06890
 Alpha virt. eigenvalues --    3.44026   3.68237   3.75241   3.77507   3.94683
 Alpha virt. eigenvalues --    4.00348   4.08689   4.09709   4.14263   4.15778
 Alpha virt. eigenvalues --    4.19548   4.19577   4.23865   4.27306   4.27743
 Alpha virt. eigenvalues --    4.27969   4.34566   4.35910   4.36543   4.43176
 Alpha virt. eigenvalues --    4.47137   4.47576   4.48256   4.54393   4.56306
 Alpha virt. eigenvalues --    4.56995   4.60405   4.60880   4.70259   4.72871
 Alpha virt. eigenvalues --    4.73263   4.79064   4.83778   4.89670   4.90430
 Alpha virt. eigenvalues --    4.97456   5.02829   5.03567   5.04630   5.16212
 Alpha virt. eigenvalues --    5.23216   5.27633   5.31942   5.42451   5.44532
 Alpha virt. eigenvalues --    5.55619   5.62379   5.68841   5.74403   5.83981
 Alpha virt. eigenvalues --    5.87597   5.99345   6.20828   6.25202   6.30646
 Alpha virt. eigenvalues --    6.43567   6.46195   6.59583   6.67964   6.79191
 Alpha virt. eigenvalues --    6.90008   6.95068   7.02668   7.19557   7.32071
 Alpha virt. eigenvalues --    7.37473   7.38475   7.43012   7.54767   7.71189
 Alpha virt. eigenvalues --    7.78069   7.78314   8.02317   8.08755   8.88375
 Alpha virt. eigenvalues --   16.44770  17.85580
          Condensed to atoms (all electrons):
               1          2          3          4          5          6
     1  O    8.018047   0.245462  -0.030100   0.282928  -0.001034  -0.000704
     2  H    0.245462   0.426700   0.009345   0.035243  -0.000454  -0.001306
     3  N   -0.030100   0.009345   6.279347  -0.000748   0.391886   0.387403
     4  H    0.282928   0.035243  -0.000748   0.499050  -0.000814  -0.000260
     5  H   -0.001034  -0.000454   0.391886  -0.000814   0.478636  -0.005734
     6  H   -0.000704  -0.001306   0.387403  -0.000260  -0.005734   0.463059
     7  H   -0.000704  -0.001306   0.387403  -0.000260  -0.005734  -0.004460
               7
     1  O   -0.000704
     2  H   -0.001306
     3  N    0.387403
     4  H   -0.000260
     5  H   -0.005734
     6  H   -0.004460
     7  H    0.463059
 Mulliken charges:
               1
     1  O   -0.513894
     2  H    0.286316
     3  N   -0.424536
     4  H    0.184862
     5  H    0.143249
     6  H    0.162002
     7  H    0.162002
 Sum of Mulliken charges =  -0.00000
 Mulliken charges with hydrogens summed into heavy atoms:
               1
     1  O   -0.042716
     3  N    0.042716
 APT charges:
               1
     1  O   -0.642522
     2  H    0.401588
     3  N   -0.481458
     4  H    0.238960
     5  H    0.178805
     6  H    0.152314
     7  H    0.152314
 Sum of APT charges =  -0.00000
 APT charges with hydrogens summed into heavy atoms:
               1
     1  O   -0.001974
     3  N    0.001974
 Electronic spatial extent (au):  <R**2>=            202.1313
 Charge=             -0.0000 electrons
 Dipole moment (field-independent basis, Debye):
    X=             -1.2861    Y=             -3.5741    Z=              0.0000  Tot=              3.7985
 Quadrupole moment (field-independent basis, Debye-Ang):
   XX=            -11.3109   YY=            -13.4013   ZZ=            -13.9934
   XY=             -2.9447   XZ=              0.0000   YZ=             -0.0000
 Traceless Quadrupole moment (field-independent basis, Debye-Ang):
   XX=              1.5910   YY=             -0.4994   ZZ=             -1.0916
   XY=             -2.9447   XZ=              0.0000   YZ=             -0.0000
 Octapole moment (field-independent basis, Debye-Ang**2):
  XXX=             -0.3136  YYY=             -8.1495  ZZZ=             -0.0000  XYY=             -7.8599
  XXY=              0.1473  XXZ=              0.0000  XZZ=             -0.9617  YZZ=             -3.3966
  YYZ=              0.0000  XYZ=             -0.0000
 Hexadecapole moment (field-independent basis, Debye-Ang**3):
 XXXX=            -15.3994 YYYY=           -202.7483 ZZZZ=            -16.7852 XXXY=             -2.8231
 XXXZ=              0.0000 YYYX=             -5.0456 YYYZ=             -0.0000 ZZZX=             -0.0000
 ZZZY=              0.0000 XXYY=            -28.2565 XXZZ=             -5.8727 YYZZ=            -34.3309
 XXYZ=              0.0000 YYXZ=              0.0000 ZZXY=              2.4179
 N-N= 3.898404842855D+01 E-N=-3.905678470766D+02  KE= 1.320861165664D+02
 Symmetry A'   KE= 1.250414735134D+02
 Symmetry A"   KE= 7.044643052979D+00
  Exact polarizability:  22.209  -0.694  28.145  -0.000  -0.000  21.620
 Approx polarizability:  18.273  -0.148  18.327  -0.000  -0.000  16.719
 Calling FoFJK, ICntrl=  10100127 FMM=F ISym2X=1 I1Cent= 0 IOpClX= 0 NMat=1 NMatS=1 NMatT=0.
 ***** Axes restored to original set *****
 -------------------------------------------------------------------
 Center     Atomic                   Forces (Hartrees/Bohr)
 Number     Number              X              Y              Z
 -------------------------------------------------------------------
      1        8          -0.000783751    0.002416618   -0.000000000
      2        1          -0.000700961   -0.003988311   -0.000000000
      3        7           0.000975710   -0.013355872    0.000000000
      4        1           0.000820628    0.000088019    0.000000000
      5        1           0.006402425   -0.004101262    0.000000000
      6        1          -0.003357025    0.009470404    0.009015347
      7        1          -0.003357025    0.009470404   -0.009015347
 -------------------------------------------------------------------
 Cartesian Forces:  Max     0.013355872 RMS     0.005456082
 -----------------------------------------------------------------------------------------------
                       Internal Coordinate Forces (Hartree/Bohr or radian)
  Cent   Atom   N1       Length/X         N2         Alpha/Y        N3         Beta/Z          J
 -----------------------------------------------------------------------------------------------
      1  O 
         X        1   0.000000(     1)
      2  H        1  -0.000701(     2)      2   0.000000(     8)
      3  N        1   0.000664(     3)      2  -0.000000(     9)      3  -0.005949(    14)     0
      4  H        1  -0.000294(     4)      2  -0.000000(    10)      3  -0.001399(    15)     0
      5  H        4  -0.002991(     5)      1   0.013380(    11)      2  -0.000000(    16)     0
      6  H        4   0.001162(     6)      1  -0.008417(    12)      6  -0.021535(    17)     0
      7  H        4   0.001162(     7)      1  -0.008417(    13)      6   0.021535(    18)     0
 -----------------------------------------------------------------------------------------------
 Internal  Forces:  Max     0.021535335 RMS     0.008492780

 GradGradGradGradGradGradGradGradGradGradGradGradGradGradGradGradGradGrad
 Berny optimization.
 Search for a local minimum.
 Step number   1 out of a maximum of  100
 All quantities printed in internal units (Hartrees-Bohrs-Radians)
 Second derivative matrix not updated -- analytic derivatives used.
 The second derivative matrix:
                          R1        R2        R3        A1        A2
           R1           0.54587
           R2           0.00001   0.46105
           R3           0.00003  -0.00982   0.92475
           A1           0.03042  -0.00034   0.00064   0.14144
           A2          -0.00036  -0.02516  -0.03391  -0.00252   0.08102
           A3           0.00065  -0.02595  -0.09963   0.00375   0.02477
           D1           0.00016   0.03258  -0.03871  -0.00045  -0.12299
           Rah         -0.00721  -0.00172  -0.00133   0.02258  -0.00166
           Rab         -0.00038   0.00096   0.00067   0.00276   0.00163
                          A3        D1        Rah       Rab
           A3           0.30480
           D1           0.15751   0.50040
           Rah          0.00973  -0.00033   0.46492
           Rab         -0.00039  -0.00056   0.00598   0.01351
 ITU=  0
     Eigenvalues ---    0.01322   0.02903   0.13763   0.23175   0.46230
     Eigenvalues ---    0.46985   0.54852   0.59505   0.95043
 RFO step:  Lambda=-4.08785378D-03 EMin= 1.32214712D-02
 Linear search not attempted -- first point.
 Maximum step size (   0.010) exceeded in Quadratic search.
    -- Step size scaled by   0.087
 Variable       Old X    -DE/DX   Delta X   Delta X   Delta X     New X
                                 (Linear)    (Quad)   (Total)
    R1        1.81452  -0.00029   0.00000   0.00000   0.00000   1.81452
    R2        1.91410  -0.00299   0.00000   0.00001   0.00001   1.91412
    R3        1.91316   0.00232   0.00000  -0.00001  -0.00001   1.91315
    A1        1.82815  -0.00140   0.00000  -0.00068  -0.00068   1.82747
    A2        1.73620   0.01338   0.00000   0.00796   0.00796   1.74416
    A3        2.05362  -0.01683   0.00000  -0.00306  -0.00306   2.05056
    D1        2.09440  -0.04307   0.00000  -0.00455  -0.00455   2.08984
   Rah        1.84248  -0.00070   0.00000  -0.00004  -0.00004   1.84244
   Rab        5.52235   0.00066   0.00000   0.00246   0.00246   5.52481
         Item               Value     Threshold  Converged?
 Maximum Force            0.043071     0.000015     NO 
 RMS     Force            0.016107     0.000010     NO 
 Maximum Displacement     0.007961     0.000060     NO 
 RMS     Displacement     0.003333     0.000040     NO 
 Predicted change in Energy=-3.412828D-04
 GradGradGradGradGradGradGradGradGradGradGradGradGradGradGradGradGradGrad

 ---------------------------------------------------------------------------------------------------
                            Z-MATRIX (ANGSTROMS AND DEGREES)
   CD    Cent   Atom    N1       Length/X        N2       Alpha/Y        N3        Beta/Z          J
 ---------------------------------------------------------------------------------------------------
      1      1  O 
      2         X        1   1.000000(     1)
      3      2  H        1   0.974979(     2)      2   90.000(     8)
      4      3  N        1   2.923603(     3)      2   90.000(     9)      3    0.000(    14)      0
      5      4  H        1   0.960201(     4)      2   90.000(    10)      3  104.706(    15)      0
      6      5  H        4   1.012906(     5)      1   99.933(    11)      2  -90.000(    16)      0
      7      6  H        4   1.012395(     6)      1  117.489(    12)      6  119.739(    17)      0
      8      7  H        4   1.012395(     7)      1  117.489(    13)      6 -119.739(    18)      0
 ---------------------------------------------------------------------------------------------------
                         Z-Matrix orientation:                         
 ---------------------------------------------------------------------
 Center     Atomic      Atomic             Coordinates (Angstroms)
 Number     Number       Type             X           Y           Z
 ---------------------------------------------------------------------
      1          8           0        0.000000    0.000000    0.000000
      2         -1           0        0.000000    0.000000    1.000000
      3          1           0        0.974979    0.000000    0.000000
      4          7           0        2.923603    0.000000    0.000000
      5          1           0       -0.243759   -0.928745    0.000000
      6          1           0        3.098329    0.997722    0.000000
      7          1           0        3.390896   -0.445505    0.779811
      8          1           0        3.390896   -0.445505   -0.779811
 ---------------------------------------------------------------------
                    Distance matrix (angstroms):
                    1          2          3          4          5
     1  O    0.000000
     2  X    1.000000   0.000000
     3  H    0.974979   1.396633   0.000000
     4  N    2.923603   3.089896   1.948625   0.000000
     5  H    0.960201   1.386357   1.532283   3.300720   0.000000
     6  H    3.255010   3.405157   2.346075   1.012906   3.857568
     7  H    3.507813   3.427117   2.577448   1.012395   3.748646
     8  H    3.507813   3.855435   2.577448   1.012395   3.748646
                    6          7          8
     6  H    0.000000
     7  H    1.666315   0.000000
     8  H    1.666315   1.559623   0.000000
 Stoichiometry    H5NO
 Framework group  CS[SG(H3NO),X(H2)]
 Deg. of freedom    10
 Full point group                 CS      NOp   2
 Largest Abelian subgroup         CS      NOp   2
 Largest concise Abelian subgroup CS      NOp   2
                         Standard orientation:                         
 ---------------------------------------------------------------------
 Center     Atomic      Atomic             Coordinates (Angstroms)
 Number     Number       Type             X           Y           Z
 ---------------------------------------------------------------------
      1          8           0        0.041102    1.553828    0.000000
      2          1           0        0.041102    0.578850    0.000000
      3          7           0        0.041102   -1.369775    0.000000
      4          1           0       -0.887644    1.797588    0.000000
      5          1           0        1.038824   -1.544501    0.000000
      6          1           0       -0.404403   -1.837067    0.779811
      7          1           0       -0.404403   -1.837067   -0.779811
 ---------------------------------------------------------------------
 Rotational constants (GHZ):         146.5688967           6.4196410           6.3393874
 Standard basis: Aug-CC-pVTZ (5D, 7F)
 There are   153 symmetry adapted cartesian basis functions of A'  symmetry.
 There are    82 symmetry adapted cartesian basis functions of A"  symmetry.
 There are   131 symmetry adapted basis functions of A'  symmetry.
 There are    76 symmetry adapted basis functions of A"  symmetry.
   207 basis functions,   279 primitive gaussians,   235 cartesian basis functions
    10 alpha electrons       10 beta electrons
       nuclear repulsion energy        38.9748478522 Hartrees.
 NAtoms=    7 NActive=    7 NUniq=    6 SFac= 1.36D+00 NAtFMM=   60 NAOKFM=F Big=F
 Integral buffers will be    131072 words long.
 Raffenetti 1 integral format.
 Two-electron integral symmetry is turned on.
 One-electron integrals computed using PRISM.
 NBasis=   207 RedAO= T EigKep=  1.04D-04  NBF=   131    76
 NBsUse=   207 1.00D-06 EigRej= -1.00D+00 NBFU=   131    76
 Initial guess from the checkpoint file:  "/gscratch/scrubbed/gds001/Gau-17619.chk"
 B after Tr=    -0.000000    0.000000   -0.000000
         Rot=    1.000000    0.000000   -0.000000    0.000021 Ang=   0.00 deg.
 Initial guess orbital symmetries:
       Occupied  (A') (A') (A') (A') (A') (A') (A") (A') (A") (A')
       Virtual   (A') (A") (A') (A') (A') (A') (A') (A") (A') (A")
                 (A') (A') (A') (A") (A') (A") (A') (A') (A") (A')
                 (A") (A') (A') (A') (A") (A") (A') (A') (A") (A')
                 (A') (A') (A') (A") (A') (A") (A') (A') (A') (A')
                 (A") (A") (A') (A") (A') (A') (A") (A') (A') (A")
                 (A') (A") (A') (A") (A') (A') (A') (A") (A") (A')
                 (A") (A') (A") (A') (A') (A') (A") (A') (A") (A")
                 (A') (A') (A') (A') (A") (A') (A') (A") (A') (A")
                 (A') (A") (A') (A') (A") (A') (A") (A') (A") (A')
                 (A") (A') (A') (A') (A') (A") (A') (A') (A") (A')
                 (A") (A") (A') (A") (A') (A") (A') (A') (A') (A')
                 (A") (A") (A') (A') (A') (A") (A') (A') (A") (A')
                 (A') (A") (A') (A') (A') (A") (A") (A') (A") (A')
                 (A") (A') (A") (A') (A') (A") (A") (A') (A") (A")
                 (A') (A") (A') (A") (A') (A') (A") (A') (A') (A")
                 (A') (A') (A') (A') (A") (A') (A") (A') (A") (A')
                 (A") (A') (A') (A') (A') (A") (A") (A') (A') (A")
                 (A') (A') (A") (A') (A') (A') (A") (A') (A') (A")
                 (A") (A') (A') (A") (A") (A") (A') (A') (A") (A')
                 (A') (A") (A') (A') (A') (A') (A')
 Keep R1 ints in memory in symmetry-blocked form, NReq=348312711.
 Requested convergence on RMS density matrix=1.00D-08 within 128 cycles.
 Requested convergence on MAX density matrix=1.00D-06.
 Requested convergence on             energy=1.00D-06.
 No special actions if energy rises.
 SCF Done:  E(RHF) =  -132.285148792     A.U. after    7 cycles
            NFock=  7  Conv=0.69D-08     -V/T= 2.0015
 ExpMin= 2.53D-02 ExpMax= 1.53D+04 ExpMxC= 5.22D+02 IAcc=3 IRadAn=         5 AccDes= 0.00D+00
 HarFok:  IExCor=  205 AccDes= 0.00D+00 IRadAn=         5 IDoV=-2 UseB2=F ITyADJ=14
 ICtDFT= 12500011 ScaDFX=  1.000000  1.000000  1.000000  1.000000
 Range of M.O.s used for correlation:     3   207
 NBasis=   207 NAE=    10 NBE=    10 NFC=     2 NFV=     0
 NROrb=    205 NOA=     8 NOB=     8 NVA=   197 NVB=   197

 **** Warning!!: The largest alpha MO coefficient is  0.26404888D+02

 Disk-based method using ON**2 memory for  8 occupieds at a time.
 Permanent disk used for amplitudes=     4749670 words.
 Estimated scratch disk usage=   149720108 words.
 Actual    scratch disk usage=   146574380 words.
 JobTyp=1 Pass  1:  I=   3 to  10 NPSUse= 28 ParTrn=T ParDer=T DoDerP=T.
 (rs|ai) integrals will be sorted in core.
 Spin components of T(2) and E(2):
     alpha-alpha T2 =       0.1636341109D-01 E2=     -0.6023267916D-01
     alpha-beta  T2 =       0.9862029795D-01 E2=     -0.3926761314D+00
     beta-beta   T2 =       0.1636341109D-01 E2=     -0.6023267916D-01
 ANorm=    0.1063648025D+01
 E2 =    -0.5131414897D+00 EUMP2 =    -0.13279829028149D+03
 G2DrvN: will do     8 centers at a time, making    1 passes.
 Calling FoFCou, ICntrl=  3107 FMM=F I1Cent=   0 AccDes= 0.00D+00.
 End of G2Drv F.D. properties file   721 does not exist.
 End of G2Drv F.D. properties file   722 does not exist.
 End of G2Drv F.D. properties file   788 does not exist.
          IDoAtm=1111111
          Differentiating once with respect to electric field.
                with respect to dipole field.
          Differentiating once with respect to nuclear coordinates.
 Keep R1 ints in memory in symmetry-blocked form, NReq=348314073.
          There are    24 degrees of freedom in the 1st order CPHF.  IDoFFX=6 NUNeed=    24.
     21 vectors produced by pass  0 Test12= 8.21D-15 4.17D-09 XBig12= 5.03D+00 7.87D-01.
 AX will form    21 AO Fock derivatives at one time.
     21 vectors produced by pass  1 Test12= 8.21D-15 4.17D-09 XBig12= 1.64D-01 1.12D-01.
     21 vectors produced by pass  2 Test12= 8.21D-15 4.17D-09 XBig12= 3.99D-03 1.84D-02.
     21 vectors produced by pass  3 Test12= 8.21D-15 4.17D-09 XBig12= 4.66D-05 1.22D-03.
     21 vectors produced by pass  4 Test12= 8.21D-15 4.17D-09 XBig12= 3.94D-07 1.24D-04.
     21 vectors produced by pass  5 Test12= 8.21D-15 4.17D-09 XBig12= 3.96D-09 8.94D-06.
     17 vectors produced by pass  6 Test12= 8.21D-15 4.17D-09 XBig12= 1.81D-11 7.60D-07.
      3 vectors produced by pass  7 Test12= 8.21D-15 4.17D-09 XBig12= 9.14D-14 4.51D-08.
 InvSVY:  IOpt=1 It=  1 EMax= 1.33D-15
 Solved reduced A of dimension   146 with    24 vectors.
 End of Minotr F.D. properties file   721 does not exist.
 End of Minotr F.D. properties file   722 does not exist.
 End of Minotr F.D. properties file   788 does not exist.
 MDV=  5502926848.
 Form MO integral derivatives with frozen-active canonical formalism.
 Discarding MO integrals.
 Reordered first order wavefunction length =      7761800
 In DefCFB: NBatch=  1 ICI= 10 ICA=197 LFMax= 66
            Large arrays: LIAPS=   383322600 LIARS=   178235750 words.
 Semi-Direct transformation.
 ModeAB=           4 MOrb=            10 LenV=    5501728816
 LASXX=     42872175 LTotXX=    42872175 LenRXX=    86358025
 LTotAB=    43485850 MaxLAS=    47365740 LenRXY=           0
 NonZer=   129230200 LenScr=   193986560 LnRSAI=    47365740
 LnScr1=    71303168 LExtra=           0 Total=    399013493
 MaxDsk=          -1 SrtSym=           T ITran=            4
 JobTyp=0 Pass  1:  I=   1 to  10.
 (rs|ai) integrals will be sorted in core.
 Spin components of T(2) and E(2):
     alpha-alpha T2 =       0.1636341109D-01 E2=     -0.6023267916D-01
     alpha-beta  T2 =       0.9862029795D-01 E2=     -0.3926761314D+00
     beta-beta   T2 =       0.1636341109D-01 E2=     -0.6023267916D-01
 ANorm=    0.1504225462D+01
 E2 =    -0.5131414897D+00 EUMP2 =    -0.13279829028149D+03
          IDoAtm=1111111
          Differentiating once with respect to electric field.
                with respect to dipole field.
          Differentiating once with respect to nuclear coordinates.
          There are     1 degrees of freedom in the 1st order CPHF.  IDoFFX=0 NUNeed=     1.
 LinEq1:  Iter=  0 NonCon=     1 RMS=2.94D-03 Max=3.68D-02 NDo=     1
 LinEq1:  Iter=  1 NonCon=     1 RMS=6.24D-04 Max=7.04D-03 NDo=     1
 LinEq1:  Iter=  2 NonCon=     1 RMS=2.85D-04 Max=4.34D-03 NDo=     1
 LinEq1:  Iter=  3 NonCon=     1 RMS=3.65D-05 Max=2.72D-04 NDo=     1
 LinEq1:  Iter=  4 NonCon=     1 RMS=5.74D-06 Max=4.81D-05 NDo=     1
 LinEq1:  Iter=  5 NonCon=     1 RMS=1.88D-06 Max=1.98D-05 NDo=     1
 LinEq1:  Iter=  6 NonCon=     1 RMS=7.30D-07 Max=6.28D-06 NDo=     1
 LinEq1:  Iter=  7 NonCon=     1 RMS=1.50D-07 Max=1.46D-06 NDo=     1
 LinEq1:  Iter=  8 NonCon=     1 RMS=2.04D-08 Max=1.91D-07 NDo=     1
 LinEq1:  Iter=  9 NonCon=     1 RMS=4.03D-09 Max=3.30D-08 NDo=     1
 LinEq1:  Iter= 10 NonCon=     1 RMS=6.84D-10 Max=6.05D-09 NDo=     1
 LinEq1:  Iter= 11 NonCon=     1 RMS=9.17D-11 Max=1.05D-09 NDo=     1
 LinEq1:  Iter= 12 NonCon=     0 RMS=1.62D-11 Max=1.26D-10 NDo=     1
 Linear equations converged to 1.000D-10 1.000D-09 after    12 iterations.
 End of Minotr F.D. properties file   721 does not exist.
 End of Minotr F.D. properties file   722 does not exist.
 End of Minotr F.D. properties file   788 does not exist.
 Symmetrizing basis deriv contribution to polar:
 IMax=3 JMax=2 DiffMx= 0.00D+00
 G2DrvN: will do     8 centers at a time, making    1 passes.
 Calling FoFCou, ICntrl=  3107 FMM=F I1Cent=   0 AccDes= 0.00D+00.
 End of G2Drv F.D. properties file   721 does not exist.
 End of G2Drv F.D. properties file   722 does not exist.
 End of G2Drv F.D. properties file   788 does not exist.
 R2 and R3 integrals will be kept in memory, NReq=   775552640.
 DD1Dir will call FoFMem   1 times, MxPair=       110
 NAB=    55 NAA=     0 NBB=     0.
 Discarding MO integrals.
 Calling FoFJK, ICntrl=  10100127 FMM=F ISym2X=1 I1Cent= 0 IOpClX= 0 NMat=1 NMatS=1 NMatT=0.
 ***** Axes restored to original set *****
 -------------------------------------------------------------------
 Center     Atomic                   Forces (Hartrees/Bohr)
 Number     Number              X              Y              Z
 -------------------------------------------------------------------
      1        8          -0.000726401    0.002319109    0.000000000
      2        1          -0.000640678   -0.003824822   -0.000000000
      3        7           0.000940111   -0.012127618    0.000000000
      4        1           0.000750450    0.000080436   -0.000000000
      5        1           0.005829580   -0.003791248    0.000000000
      6        1          -0.003076531    0.008672072    0.008178119
      7        1          -0.003076531    0.008672072   -0.008178119
 -------------------------------------------------------------------
 Cartesian Forces:  Max     0.012127618 RMS     0.004980624
 -----------------------------------------------------------------------------------------------
                       Internal Coordinate Forces (Hartree/Bohr or radian)
  Cent   Atom   N1       Length/X         N2         Alpha/Y        N3         Beta/Z          J
 -----------------------------------------------------------------------------------------------
      1  O 
         X        1   0.000000(     1)
      2  H        1  -0.000641(     2)      2   0.000000(     8)
      3  N        1   0.000617(     3)      2  -0.000000(     9)      3  -0.005767(    14)     0
      4  H        1  -0.000268(     4)      2   0.000000(    10)      3  -0.001280(    15)     0
      5  H        4  -0.002729(     5)      1   0.012243(    11)      2  -0.000000(    16)     0
      6  H        4   0.001063(     6)      1  -0.007693(    12)      6  -0.019664(    17)     0
      7  H        4   0.001063(     7)      1  -0.007693(    13)      6   0.019664(    18)     0
 -----------------------------------------------------------------------------------------------
 Internal  Forces:  Max     0.019664443 RMS     0.007771420

 GradGradGradGradGradGradGradGradGradGradGradGradGradGradGradGradGradGrad
 Berny optimization.
 Search for a local minimum.
 Step number   2 out of a maximum of  100
 All quantities printed in internal units (Hartrees-Bohrs-Radians)
 Second derivative matrix not updated -- analytic derivatives used.
 DE= -3.41D-04 DEPred=-3.41D-04 R= 1.00D+00
 TightC=F SS=  1.41D+00  RLast= 1.00D-02 DXNew= 1.6818D-02 3.0000D-02
 Trust test= 1.00D+00 RLast= 1.00D-02 DXMaxT set to 5.00D-02
 The second derivative matrix:
                          R1        R2        R3        A1        A2
           R1           0.54587
           R2           0.00001   0.46107
           R3           0.00003  -0.00954   0.92428
           A1           0.03045  -0.00034   0.00064   0.14159
           A2          -0.00037  -0.02533  -0.03397  -0.00251   0.08183
           A3           0.00065  -0.02620  -0.09909   0.00375   0.02661
           D1           0.00016   0.03302  -0.03732  -0.00046  -0.12388
           Rah         -0.00720  -0.00168  -0.00133   0.02262  -0.00150
           Rab         -0.00037   0.00093   0.00068   0.00276   0.00156
                          A3        D1        Rah       Rab
           A3           0.30287
           D1           0.15854   0.49936
           Rah          0.00968  -0.00032   0.46504
           Rab         -0.00038  -0.00056   0.00601   0.01341
 ITU=  1  0
     Eigenvalues ---    0.01313   0.02787   0.13777   0.23097   0.46240
     Eigenvalues ---    0.46990   0.54852   0.59539   0.94938
 RFO step:  Lambda=-8.37261336D-03 EMin= 1.31320393D-02
 Quartic linear search produced a step of  2.00000.
 Maximum step size (   0.050) exceeded in Quadratic search.
    -- Step size scaled by   0.103
 Variable       Old X    -DE/DX   Delta X   Delta X   Delta X     New X
                                 (Linear)    (Quad)   (Total)
    R1        1.81452  -0.00027   0.00000  -0.00010  -0.00009   1.81442
    R2        1.91412  -0.00273   0.00002  -0.00081  -0.00079   1.91333
    R3        1.91315   0.00213  -0.00002  -0.00080  -0.00082   1.91233
    A1        1.82747  -0.00128  -0.00135   0.00009  -0.00126   1.82620
    A2        1.74416   0.01224   0.01592  -0.03828  -0.02236   1.72180
    A3        2.05056  -0.01539  -0.00612   0.00986   0.00373   2.05430
    D1        2.08984  -0.03933  -0.00910  -0.01647  -0.02557   2.06427
   Rah        1.84244  -0.00064  -0.00008  -0.00011  -0.00019   1.84225
   Rab        5.52481   0.00062   0.00493  -0.02578  -0.02085   5.50396
         Item               Value     Threshold  Converged?
 Maximum Force            0.039329     0.000015     NO 
 RMS     Force            0.014712     0.000010     NO 
 Maximum Displacement     0.025574     0.000060     NO 
 RMS     Displacement     0.013357     0.000040     NO 
 Predicted change in Energy=-5.631100D-04
 GradGradGradGradGradGradGradGradGradGradGradGradGradGradGradGradGradGrad

 ---------------------------------------------------------------------------------------------------
                            Z-MATRIX (ANGSTROMS AND DEGREES)
   CD    Cent   Atom    N1       Length/X        N2       Alpha/Y        N3        Beta/Z          J
 ---------------------------------------------------------------------------------------------------
      1      1  O 
      2         X        1   1.000000(     1)
      3      2  H        1   0.974879(     2)      2   90.000(     8)
      4      3  N        1   2.912568(     3)      2   90.000(     9)      3    0.000(    14)      0
      5      4  H        1   0.960152(     4)      2   90.000(    10)      3  104.634(    15)      0
      6      5  H        4   1.012488(     5)      1   98.652(    11)      2  -90.000(    16)      0
      7      6  H        4   1.011959(     6)      1  117.702(    12)      6  118.274(    17)      0
      8      7  H        4   1.011959(     7)      1  117.702(    13)      6 -118.274(    18)      0
 ---------------------------------------------------------------------------------------------------
                         Z-Matrix orientation:                         
 ---------------------------------------------------------------------
 Center     Atomic      Atomic             Coordinates (Angstroms)
 Number     Number       Type             X           Y           Z
 ---------------------------------------------------------------------
      1          8           0        0.000000    0.000000    0.000000
      2         -1           0        0.000000    0.000000    1.000000
      3          1           0        0.974879    0.000000    0.000000
      4          7           0        2.912568    0.000000    0.000000
      5          1           0       -0.242572   -0.929005    0.000000
      6          1           0        3.064881    1.000966    0.000000
      7          1           0        3.383007   -0.424407    0.789067
      8          1           0        3.383007   -0.424407   -0.789067
 ---------------------------------------------------------------------
                    Distance matrix (angstroms):
                    1          2          3          4          5
     1  O    0.000000
     2  X    1.000000   0.000000
     3  H    0.974879   1.396563   0.000000
     4  N    2.912568   3.079456   1.937689   0.000000
     5  H    0.960152   1.386323   1.531417   3.289067   0.000000
     6  H    3.224194   3.375711   2.317335   1.012488   3.829365
     7  H    3.499641   3.416043   2.569403   1.011959   3.744606
     8  H    3.499641   3.850405   2.569403   1.011959   3.744606
                    6          7          8
     6  H    0.000000
     7  H    1.659976   0.000000
     8  H    1.659976   1.578135   0.000000
 Stoichiometry    H5NO
 Framework group  CS[SG(H3NO),X(H2)]
 Deg. of freedom    10
 Full point group                 CS      NOp   2
 Largest Abelian subgroup         CS      NOp   2
 Largest concise Abelian subgroup CS      NOp   2
                         Standard orientation:                         
 ---------------------------------------------------------------------
 Center     Atomic      Atomic             Coordinates (Angstroms)
 Number     Number       Type             X           Y           Z
 ---------------------------------------------------------------------
      1          8           0        0.038843    1.547559    0.000000
      2          1           0        0.038843    0.572680    0.000000
      3          7           0        0.038843   -1.365009    0.000000
      4          1           0       -0.890162    1.790131    0.000000
      5          1           0        1.039809   -1.517322    0.000000
      6          1           0       -0.385564   -1.835448    0.789067
      7          1           0       -0.385564   -1.835448   -0.789067
 ---------------------------------------------------------------------
 Rotational constants (GHZ):         146.6163991           6.4680390           6.3913969
 Standard basis: Aug-CC-pVTZ (5D, 7F)
 There are   153 symmetry adapted cartesian basis functions of A'  symmetry.
 There are    82 symmetry adapted cartesian basis functions of A"  symmetry.
 There are   131 symmetry adapted basis functions of A'  symmetry.
 There are    76 symmetry adapted basis functions of A"  symmetry.
   207 basis functions,   279 primitive gaussians,   235 cartesian basis functions
    10 alpha electrons       10 beta electrons
       nuclear repulsion energy        39.0553894210 Hartrees.
 NAtoms=    7 NActive=    7 NUniq=    6 SFac= 1.36D+00 NAtFMM=   60 NAOKFM=F Big=F
 Integral buffers will be    131072 words long.
 Raffenetti 1 integral format.
 Two-electron integral symmetry is turned on.
 One-electron integrals computed using PRISM.
 NBasis=   207 RedAO= T EigKep=  1.04D-04  NBF=   131    76
 NBsUse=   207 1.00D-06 EigRej= -1.00D+00 NBFU=   131    76
 Initial guess from the checkpoint file:  "/gscratch/scrubbed/gds001/Gau-17619.chk"
 B after Tr=    -0.000000   -0.000000   -0.000000
         Rot=    0.999999   -0.000000    0.000000   -0.001225 Ang=  -0.14 deg.
 Initial guess orbital symmetries:
       Occupied  (A') (A') (A') (A') (A') (A') (A") (A') (A") (A')
       Virtual   (A') (A") (A') (A') (A') (A') (A') (A") (A') (A")
                 (A') (A') (A') (A") (A') (A") (A') (A') (A") (A')
                 (A") (A') (A') (A') (A") (A") (A') (A') (A") (A')
                 (A') (A') (A') (A") (A') (A") (A') (A') (A') (A')
                 (A") (A") (A') (A") (A') (A') (A") (A') (A') (A")
                 (A') (A") (A') (A") (A') (A') (A') (A") (A") (A')
                 (A") (A') (A") (A') (A') (A') (A") (A') (A") (A")
                 (A') (A') (A') (A') (A") (A') (A') (A") (A') (A")
                 (A') (A") (A') (A') (A") (A') (A") (A') (A") (A')
                 (A") (A') (A') (A') (A') (A") (A') (A') (A") (A')
                 (A") (A") (A') (A") (A') (A") (A') (A') (A') (A')
                 (A") (A") (A') (A') (A') (A") (A') (A') (A") (A')
                 (A') (A") (A') (A') (A') (A") (A") (A') (A") (A')
                 (A") (A') (A") (A') (A') (A") (A") (A') (A") (A")
                 (A') (A") (A') (A") (A') (A') (A") (A') (A') (A")
                 (A') (A') (A') (A') (A") (A') (A") (A') (A") (A')
                 (A") (A') (A') (A') (A') (A") (A") (A') (A') (A")
                 (A') (A') (A") (A') (A') (A') (A") (A') (A') (A")
                 (A") (A') (A') (A") (A") (A") (A') (A') (A") (A')
                 (A") (A') (A') (A') (A') (A') (A')
 ExpMin= 2.53D-02 ExpMax= 1.53D+04 ExpMxC= 5.22D+02 IAcc=3 IRadAn=         5 AccDes= 0.00D+00
 Harris functional with IExCor=  205 and IRadAn=       5 diagonalized for initial guess.
 HarFok:  IExCor=  205 AccDes= 0.00D+00 IRadAn=         5 IDoV= 1 UseB2=F ITyADJ=14
 ICtDFT=  3500011 ScaDFX=  1.000000  1.000000  1.000000  1.000000
 FoFCou: FMM=F IPFlag=           0 FMFlag=      100000 FMFlg1=           0
         NFxFlg=           0 DoJE=T BraDBF=F KetDBF=T FulRan=T
         wScrn=  0.000000 ICntrl=       500 IOpCl=  0 I1Cent=   200000004 NGrid=           0
         NMat0=    1 NMatS0=      1 NMatT0=    0 NMatD0=    1 NMtDS0=    0 NMtDT0=    0
 Petite list used in FoFCou.
 Keep R1 ints in memory in symmetry-blocked form, NReq=348312711.
 Requested convergence on RMS density matrix=1.00D-08 within 128 cycles.
 Requested convergence on MAX density matrix=1.00D-06.
 Requested convergence on             energy=1.00D-06.
 No special actions if energy rises.
 SCF Done:  E(RHF) =  -132.285754389     A.U. after    8 cycles
            NFock=  8  Conv=0.79D-08     -V/T= 2.0015
 ExpMin= 2.53D-02 ExpMax= 1.53D+04 ExpMxC= 5.22D+02 IAcc=3 IRadAn=         5 AccDes= 0.00D+00
 HarFok:  IExCor=  205 AccDes= 0.00D+00 IRadAn=         5 IDoV=-2 UseB2=F ITyADJ=14
 ICtDFT= 12500011 ScaDFX=  1.000000  1.000000  1.000000  1.000000
 Range of M.O.s used for correlation:     3   207
 NBasis=   207 NAE=    10 NBE=    10 NFC=     2 NFV=     0
 NROrb=    205 NOA=     8 NOB=     8 NVA=   197 NVB=   197

 **** Warning!!: The largest alpha MO coefficient is  0.27364795D+02

 Disk-based method using ON**2 memory for  8 occupieds at a time.
 Permanent disk used for amplitudes=     4749670 words.
 Estimated scratch disk usage=   149741426 words.
 Actual    scratch disk usage=   146595698 words.
 JobTyp=1 Pass  1:  I=   3 to  10 NPSUse= 28 ParTrn=T ParDer=T DoDerP=T.
 (rs|ai) integrals will be sorted in core.
 Spin components of T(2) and E(2):
     alpha-alpha T2 =       0.1635686691D-01 E2=     -0.6023549832D-01
     alpha-beta  T2 =       0.9855159387D-01 E2=     -0.3926302938D+00
     beta-beta   T2 =       0.1635686691D-01 E2=     -0.6023549832D-01
 ANorm=    0.1063609575D+01
 E2 =    -0.5131012904D+00 EUMP2 =    -0.13279885567962D+03
 G2DrvN: will do     8 centers at a time, making    1 passes.
 Calling FoFCou, ICntrl=  3107 FMM=F I1Cent=   0 AccDes= 0.00D+00.
 End of G2Drv F.D. properties file   721 does not exist.
 End of G2Drv F.D. properties file   722 does not exist.
 End of G2Drv F.D. properties file   788 does not exist.
          IDoAtm=1111111
          Differentiating once with respect to electric field.
                with respect to dipole field.
          Differentiating once with respect to nuclear coordinates.
 Keep R1 ints in memory in symmetry-blocked form, NReq=348314073.
          There are    24 degrees of freedom in the 1st order CPHF.  IDoFFX=6 NUNeed=    24.
     21 vectors produced by pass  0 Test12= 8.21D-15 4.17D-09 XBig12= 5.02D+00 7.85D-01.
 AX will form    21 AO Fock derivatives at one time.
     21 vectors produced by pass  1 Test12= 8.21D-15 4.17D-09 XBig12= 1.63D-01 1.11D-01.
     21 vectors produced by pass  2 Test12= 8.21D-15 4.17D-09 XBig12= 4.00D-03 1.84D-02.
     21 vectors produced by pass  3 Test12= 8.21D-15 4.17D-09 XBig12= 4.60D-05 1.22D-03.
     21 vectors produced by pass  4 Test12= 8.21D-15 4.17D-09 XBig12= 3.72D-07 1.22D-04.
     21 vectors produced by pass  5 Test12= 8.21D-15 4.17D-09 XBig12= 3.76D-09 8.68D-06.
     17 vectors produced by pass  6 Test12= 8.21D-15 4.17D-09 XBig12= 1.78D-11 7.38D-07.
      3 vectors produced by pass  7 Test12= 8.21D-15 4.17D-09 XBig12= 9.12D-14 4.33D-08.
 InvSVY:  IOpt=1 It=  1 EMax= 1.78D-15
 Solved reduced A of dimension   146 with    24 vectors.
 End of Minotr F.D. properties file   721 does not exist.
 End of Minotr F.D. properties file   722 does not exist.
 End of Minotr F.D. properties file   788 does not exist.
 MDV=  5502926848.
 Form MO integral derivatives with frozen-active canonical formalism.
 Discarding MO integrals.
 Reordered first order wavefunction length =      7761800
 In DefCFB: NBatch=  1 ICI= 10 ICA=197 LFMax= 66
            Large arrays: LIAPS=   383322600 LIARS=   178235750 words.
 Semi-Direct transformation.
 ModeAB=           4 MOrb=            10 LenV=    5501728720
 LASXX=     42872175 LTotXX=    42872175 LenRXX=    86358025
 LTotAB=    43485850 MaxLAS=    47380230 LenRXY=           0
 NonZer=   129230200 LenScr=   193986560 LnRSAI=    47380230
 LnScr1=    71303168 LExtra=           0 Total=    399027983
 MaxDsk=          -1 SrtSym=           T ITran=            4
 JobTyp=0 Pass  1:  I=   1 to  10.
 (rs|ai) integrals will be sorted in core.
 Spin components of T(2) and E(2):
     alpha-alpha T2 =       0.1635686691D-01 E2=     -0.6023549832D-01
     alpha-beta  T2 =       0.9855159387D-01 E2=     -0.3926302938D+00
     beta-beta   T2 =       0.1635686691D-01 E2=     -0.6023549832D-01
 ANorm=    0.1504171086D+01
 E2 =    -0.5131012904D+00 EUMP2 =    -0.13279885567962D+03
          IDoAtm=1111111
          Differentiating once with respect to electric field.
                with respect to dipole field.
          Differentiating once with respect to nuclear coordinates.
          There are     1 degrees of freedom in the 1st order CPHF.  IDoFFX=0 NUNeed=     1.
 LinEq1:  Iter=  0 NonCon=     1 RMS=2.94D-03 Max=3.67D-02 NDo=     1
 LinEq1:  Iter=  1 NonCon=     1 RMS=6.23D-04 Max=6.87D-03 NDo=     1
 LinEq1:  Iter=  2 NonCon=     1 RMS=2.84D-04 Max=4.27D-03 NDo=     1
 LinEq1:  Iter=  3 NonCon=     1 RMS=3.63D-05 Max=2.75D-04 NDo=     1
 LinEq1:  Iter=  4 NonCon=     1 RMS=5.72D-06 Max=4.97D-05 NDo=     1
 LinEq1:  Iter=  5 NonCon=     1 RMS=1.95D-06 Max=2.03D-05 NDo=     1
 LinEq1:  Iter=  6 NonCon=     1 RMS=7.40D-07 Max=6.42D-06 NDo=     1
 LinEq1:  Iter=  7 NonCon=     1 RMS=1.48D-07 Max=1.42D-06 NDo=     1
 LinEq1:  Iter=  8 NonCon=     1 RMS=2.01D-08 Max=1.84D-07 NDo=     1
 LinEq1:  Iter=  9 NonCon=     1 RMS=3.98D-09 Max=3.30D-08 NDo=     1
 LinEq1:  Iter= 10 NonCon=     1 RMS=6.78D-10 Max=5.82D-09 NDo=     1
 LinEq1:  Iter= 11 NonCon=     1 RMS=9.10D-11 Max=1.05D-09 NDo=     1
 LinEq1:  Iter= 12 NonCon=     0 RMS=1.60D-11 Max=1.25D-10 NDo=     1
 Linear equations converged to 1.000D-10 1.000D-09 after    12 iterations.
 End of Minotr F.D. properties file   721 does not exist.
 End of Minotr F.D. properties file   722 does not exist.
 End of Minotr F.D. properties file   788 does not exist.
 Symmetrizing basis deriv contribution to polar:
 IMax=3 JMax=2 DiffMx= 0.00D+00
 G2DrvN: will do     8 centers at a time, making    1 passes.
 Calling FoFCou, ICntrl=  3107 FMM=F I1Cent=   0 AccDes= 0.00D+00.
 End of G2Drv F.D. properties file   721 does not exist.
 End of G2Drv F.D. properties file   722 does not exist.
 End of G2Drv F.D. properties file   788 does not exist.
 R2 and R3 integrals will be kept in memory, NReq=   775552640.
 DD1Dir will call FoFMem   1 times, MxPair=       110
 NAB=    55 NAA=     0 NBB=     0.
 Discarding MO integrals.
 Calling FoFJK, ICntrl=  10100127 FMM=F ISym2X=1 I1Cent= 0 IOpClX= 0 NMat=1 NMatS=1 NMatT=0.
 ***** Axes restored to original set *****
 -------------------------------------------------------------------
 Center     Atomic                   Forces (Hartrees/Bohr)
 Number     Number              X              Y              Z
 -------------------------------------------------------------------
      1        8          -0.001090549    0.002378502   -0.000000000
      2        1          -0.000489593   -0.003986254    0.000000000
      3        7           0.000389294   -0.009298544   -0.000000000
      4        1           0.000646049    0.000032774    0.000000000
      5        1           0.005279984   -0.002785248   -0.000000000
      6        1          -0.002367592    0.006829385    0.006132851
      7        1          -0.002367592    0.006829385   -0.006132851
 -------------------------------------------------------------------
 Cartesian Forces:  Max     0.009298544 RMS     0.003936163
 -----------------------------------------------------------------------------------------------
                       Internal Coordinate Forces (Hartree/Bohr or radian)
  Cent   Atom   N1       Length/X         N2         Alpha/Y        N3         Beta/Z          J
 -----------------------------------------------------------------------------------------------
      1  O 
         X        1   0.000000(     1)
      2  H        1  -0.000490(     2)      2  -0.000000(     8)
      3  N        1   0.000934(     3)      2   0.000000(     9)      3  -0.006225(    14)     0
      4  H        1  -0.000195(     4)      2  -0.000000(    10)      3  -0.001119(    15)     0
      5  H        4  -0.001959(     5)      1   0.010789(    11)      2   0.000000(    16)     0
      6  H        4   0.000817(     6)      1  -0.005934(    12)      6  -0.015102(    17)     0
      7  H        4   0.000817(     7)      1  -0.005934(    13)      6   0.015102(    18)     0
 -----------------------------------------------------------------------------------------------
 Internal  Forces:  Max     0.015102064 RMS     0.006188265

 GradGradGradGradGradGradGradGradGradGradGradGradGradGradGradGradGradGrad
 Berny optimization.
 Search for a local minimum.
 Step number   3 out of a maximum of  100
 All quantities printed in internal units (Hartrees-Bohrs-Radians)
 Second derivative matrix not updated -- analytic derivatives used.
 DE= -5.65D-04 DEPred=-5.63D-04 R= 1.00D+00
 TightC=F SS=  1.41D+00  RLast= 4.01D-02 DXNew= 8.4090D-02 1.2021D-01
 Trust test= 1.00D+00 RLast= 4.01D-02 DXMaxT set to 8.41D-02
 The second derivative matrix:
                          R1        R2        R3        A1        A2
           R1           0.54607
           R2           0.00001   0.46227
           R3           0.00003  -0.00899   0.92555
           A1           0.03047  -0.00036   0.00066   0.14146
           A2          -0.00037  -0.02527  -0.03379  -0.00259   0.08222
           A3           0.00065  -0.02534  -0.09794   0.00374   0.02410
           D1           0.00015   0.03446  -0.03081  -0.00048  -0.12454
           Rah         -0.00713  -0.00177  -0.00139   0.02257  -0.00204
           Rab         -0.00038   0.00098   0.00071   0.00277   0.00179
                          A3        D1        Rah       Rab
           A3           0.30535
           D1           0.16897   0.48027
           Rah          0.00999  -0.00044   0.46486
           Rab         -0.00040  -0.00059   0.00588   0.01415
 ITU=  1  1  0
     Eigenvalues ---    0.01378   0.02523   0.13765   0.22296   0.46259
     Eigenvalues ---    0.47036   0.54871   0.59222   0.94871
 RFO step:  Lambda=-1.87153181D-03 EMin= 1.37781607D-02
 Quintic linear search produced a step of  2.00000.
 Maximum step size (   0.084) exceeded in Quadratic search.
    -- Step size scaled by   0.337
 Variable       Old X    -DE/DX   Delta X   Delta X   Delta X     New X
                                 (Linear)    (Quad)   (Total)
    R1        1.81442  -0.00019  -0.00019   0.00012  -0.00006   1.81436
    R2        1.91333  -0.00196  -0.00158   0.00096  -0.00062   1.91270
    R3        1.91233   0.00163  -0.00165   0.00112  -0.00052   1.91180
    A1        1.82620  -0.00112  -0.00253  -0.00097  -0.00350   1.82270
    A2        1.72180   0.01079  -0.04472   0.06466   0.01995   1.74175
    A3        2.05430  -0.01187   0.00747  -0.01880  -0.01134   2.04296
    D1        2.06427  -0.03020  -0.05115   0.01587  -0.03527   2.02900
   Rah        1.84225  -0.00049  -0.00038   0.00003  -0.00035   1.84190
   Rab        5.50396   0.00093  -0.04171   0.04776   0.00605   5.51000
         Item               Value     Threshold  Converged?
 Maximum Force            0.030204     0.000015     NO 
 RMS     Force            0.011443     0.000010     NO 
 Maximum Displacement     0.035273     0.000060     NO 
 RMS     Displacement     0.014222     0.000040     NO 
 Predicted change in Energy=-9.386793D-04
 GradGradGradGradGradGradGradGradGradGradGradGradGradGradGradGradGradGrad

 ---------------------------------------------------------------------------------------------------
                            Z-MATRIX (ANGSTROMS AND DEGREES)
   CD    Cent   Atom    N1       Length/X        N2       Alpha/Y        N3        Beta/Z          J
 ---------------------------------------------------------------------------------------------------
      1      1  O 
      2         X        1   1.000000(     1)
      3      2  H        1   0.974693(     2)      2   90.000(     8)
      4      3  N        1   2.915769(     3)      2   90.000(     9)      3    0.000(    14)      0
      5      4  H        1   0.960118(     4)      2   90.000(    10)      3  104.433(    15)      0
      6      5  H        4   1.012160(     5)      1   99.795(    11)      2  -90.000(    16)      0
      7      6  H        4   1.011683(     6)      1  117.053(    12)      6  116.253(    17)      0
      8      7  H        4   1.011683(     7)      1  117.053(    13)      6 -116.253(    18)      0
 ---------------------------------------------------------------------------------------------------
                         Z-Matrix orientation:                         
 ---------------------------------------------------------------------
 Center     Atomic      Atomic             Coordinates (Angstroms)
 Number     Number       Type             X           Y           Z
 ---------------------------------------------------------------------
      1          8           0        0.000000    0.000000    0.000000
      2         -1           0        0.000000    0.000000    1.000000
      3          1           0        0.974693    0.000000    0.000000
      4          7           0        2.915769    0.000000    0.000000
      5          1           0       -0.239309   -0.929816    0.000000
      6          1           0        3.087960    0.997405    0.000000
      7          1           0        3.375894   -0.398540    0.808055
      8          1           0        3.375894   -0.398540   -0.808055
 ---------------------------------------------------------------------
                    Distance matrix (angstroms):
                    1          2          3          4          5
     1  O    0.000000
     2  X    1.000000   0.000000
     3  H    0.974693   1.396434   0.000000
     4  N    2.915769   3.082484   1.941076   0.000000
     5  H    0.960118   1.386300   1.529170   3.289237   0.000000
     6  H    3.245045   3.395632   2.336817   1.012160   3.845115
     7  H    3.494059   3.404752   2.564674   1.011683   3.742312
     8  H    3.494059   3.850267   2.564674   1.011683   3.742312
                    6          7          8
     6  H    0.000000
     7  H    1.638451   0.000000
     8  H    1.638451   1.616110   0.000000
 Stoichiometry    H5NO
 Framework group  CS[SG(H3NO),X(H2)]
 Deg. of freedom    10
 Full point group                 CS      NOp   2
 Largest Abelian subgroup         CS      NOp   2
 Largest concise Abelian subgroup CS      NOp   2
                         Standard orientation:                         
 ---------------------------------------------------------------------
 Center     Atomic      Atomic             Coordinates (Angstroms)
 Number     Number       Type             X           Y           Z
 ---------------------------------------------------------------------
      1          8           0        0.036475    1.549276    0.000000
      2          1           0        0.036475    0.574582    0.000000
      3          7           0        0.036475   -1.366493    0.000000
      4          1           0       -0.893342    1.788585    0.000000
      5          1           0        1.033880   -1.538685    0.000000
      6          1           0       -0.362066   -1.826618    0.808055
      7          1           0       -0.362066   -1.826618   -0.808055
 ---------------------------------------------------------------------
 Rotational constants (GHZ):         146.2192183           6.4511197           6.3839662
 Standard basis: Aug-CC-pVTZ (5D, 7F)
 There are   153 symmetry adapted cartesian basis functions of A'  symmetry.
 There are    82 symmetry adapted cartesian basis functions of A"  symmetry.
 There are   131 symmetry adapted basis functions of A'  symmetry.
 There are    76 symmetry adapted basis functions of A"  symmetry.
   207 basis functions,   279 primitive gaussians,   235 cartesian basis functions
    10 alpha electrons       10 beta electrons
       nuclear repulsion energy        39.0398903067 Hartrees.
 NAtoms=    7 NActive=    7 NUniq=    6 SFac= 1.36D+00 NAtFMM=   60 NAOKFM=F Big=F
 Integral buffers will be    131072 words long.
 Raffenetti 1 integral format.
 Two-electron integral symmetry is turned on.
 One-electron integrals computed using PRISM.
 NBasis=   207 RedAO= T EigKep=  1.03D-04  NBF=   131    76
 NBsUse=   207 1.00D-06 EigRej= -1.00D+00 NBFU=   131    76
 Initial guess from the checkpoint file:  "/gscratch/scrubbed/gds001/Gau-17619.chk"
 B after Tr=     0.000000   -0.000000    0.000000
         Rot=    1.000000   -0.000000   -0.000000   -0.000676 Ang=  -0.08 deg.
 Initial guess orbital symmetries:
       Occupied  (A') (A') (A') (A') (A') (A') (A") (A') (A") (A')
       Virtual   (A') (A") (A') (A') (A') (A') (A') (A") (A') (A")
                 (A') (A') (A') (A") (A') (A") (A') (A') (A") (A')
                 (A") (A') (A') (A') (A") (A") (A') (A') (A") (A')
                 (A') (A') (A') (A") (A') (A") (A') (A') (A') (A')
                 (A") (A") (A') (A") (A') (A') (A") (A') (A') (A")
                 (A') (A") (A') (A") (A') (A') (A') (A") (A") (A')
                 (A") (A') (A") (A') (A') (A') (A") (A') (A") (A")
                 (A') (A') (A') (A') (A") (A') (A') (A") (A') (A")
                 (A') (A") (A') (A') (A") (A') (A") (A') (A") (A')
                 (A") (A') (A') (A') (A') (A") (A') (A') (A") (A')
                 (A") (A") (A') (A") (A') (A") (A') (A') (A') (A')
                 (A") (A") (A') (A') (A') (A") (A') (A') (A") (A')
                 (A') (A") (A') (A') (A') (A") (A") (A') (A") (A')
                 (A") (A') (A") (A') (A") (A') (A") (A') (A") (A")
                 (A') (A") (A') (A") (A') (A') (A') (A") (A') (A")
                 (A') (A') (A') (A') (A") (A') (A") (A') (A") (A')
                 (A") (A') (A') (A') (A') (A") (A") (A') (A') (A")
                 (A') (A') (A") (A') (A') (A') (A") (A') (A') (A")
                 (A") (A') (A') (A") (A") (A") (A') (A') (A") (A')
                 (A") (A') (A') (A') (A') (A') (A')
 ExpMin= 2.53D-02 ExpMax= 1.53D+04 ExpMxC= 5.22D+02 IAcc=3 IRadAn=         5 AccDes= 0.00D+00
 Harris functional with IExCor=  205 and IRadAn=       5 diagonalized for initial guess.
 HarFok:  IExCor=  205 AccDes= 0.00D+00 IRadAn=         5 IDoV= 1 UseB2=F ITyADJ=14
 ICtDFT=  3500011 ScaDFX=  1.000000  1.000000  1.000000  1.000000
 FoFCou: FMM=F IPFlag=           0 FMFlag=      100000 FMFlg1=           0
         NFxFlg=           0 DoJE=T BraDBF=F KetDBF=T FulRan=T
         wScrn=  0.000000 ICntrl=       500 IOpCl=  0 I1Cent=   200000004 NGrid=           0
         NMat0=    1 NMatS0=      1 NMatT0=    0 NMatD0=    1 NMtDS0=    0 NMtDT0=    0
 Petite list used in FoFCou.
 Keep R1 ints in memory in symmetry-blocked form, NReq=348312711.
 Requested convergence on RMS density matrix=1.00D-08 within 128 cycles.
 Requested convergence on MAX density matrix=1.00D-06.
 Requested convergence on             energy=1.00D-06.
 No special actions if energy rises.
 SCF Done:  E(RHF) =  -132.286806049     A.U. after    8 cycles
            NFock=  8  Conv=0.39D-08     -V/T= 2.0015
 ExpMin= 2.53D-02 ExpMax= 1.53D+04 ExpMxC= 5.22D+02 IAcc=3 IRadAn=         5 AccDes= 0.00D+00
 HarFok:  IExCor=  205 AccDes= 0.00D+00 IRadAn=         5 IDoV=-2 UseB2=F ITyADJ=14
 ICtDFT= 12500011 ScaDFX=  1.000000  1.000000  1.000000  1.000000
 Range of M.O.s used for correlation:     3   207
 NBasis=   207 NAE=    10 NBE=    10 NFC=     2 NFV=     0
 NROrb=    205 NOA=     8 NOB=     8 NVA=   197 NVB=   197

 **** Warning!!: The largest alpha MO coefficient is  0.24161925D+02

 Disk-based method using ON**2 memory for  8 occupieds at a time.
 Permanent disk used for amplitudes=     4749670 words.
 Estimated scratch disk usage=   149741426 words.
 Actual    scratch disk usage=   146595698 words.
 JobTyp=1 Pass  1:  I=   3 to  10 NPSUse= 28 ParTrn=T ParDer=T DoDerP=T.
 (rs|ai) integrals will be sorted in core.
 Spin components of T(2) and E(2):
     alpha-alpha T2 =       0.1634622967D-01 E2=     -0.6021184708D-01
     alpha-beta  T2 =       0.9850552613D-01 E2=     -0.3925659789D+00
     beta-beta   T2 =       0.1634622967D-01 E2=     -0.6021184708D-01
 ANorm=    0.1063577917D+01
 E2 =    -0.5129896730D+00 EUMP2 =    -0.13279979572162D+03
 G2DrvN: will do     8 centers at a time, making    1 passes.
 Calling FoFCou, ICntrl=  3107 FMM=F I1Cent=   0 AccDes= 0.00D+00.
 End of G2Drv F.D. properties file   721 does not exist.
 End of G2Drv F.D. properties file   722 does not exist.
 End of G2Drv F.D. properties file   788 does not exist.
          IDoAtm=1111111
          Differentiating once with respect to electric field.
                with respect to dipole field.
          Differentiating once with respect to nuclear coordinates.
[...]
                      7                      8                      9
                     A'                     A'                     A"
 Frequencies --   1094.5744              1658.4645              1669.4473
 Red. masses --      1.1858                 1.0757                 1.0644
 Frc consts  --      0.8371                 1.7432                 1.7479
 IR Inten    --    146.2383                54.3486                17.0124
  Atom  AN      X      Y      Z        X      Y      Z        X      Y      Z
     1   8     0.00   0.00  -0.00    -0.04  -0.03  -0.00     0.00   0.00   0.00
     2   1     0.00  -0.00  -0.00     0.49   0.01  -0.00    -0.00  -0.00  -0.01
     3   7     0.01  -0.12   0.00    -0.06  -0.00  -0.00     0.00  -0.00  -0.07
     4   1    -0.00  -0.01  -0.00     0.11   0.39   0.00    -0.00  -0.00  -0.00
     5   1     0.17   0.55  -0.00    -0.09  -0.18   0.00     0.00  -0.00   0.76
     6   1    -0.15   0.52   0.18     0.41   0.12   0.30     0.41  -0.19   0.08
     7   1    -0.15   0.52  -0.18     0.41   0.12  -0.30    -0.41   0.19   0.08
                     10                     11                     12
                     A'                     A'                     A'
 Frequencies --   1679.4743              3499.1346              3595.7291
 Red. masses --      1.0650                 1.0269                 1.0583
 Frc consts  --      1.7698                 7.4079                 8.0618
 IR Inten    --     14.8357                 1.5312               555.3297
  Atom  AN      X      Y      Z        X      Y      Z        X      Y      Z
     1   8    -0.04  -0.03   0.00     0.00   0.00  -0.00    -0.01  -0.06  -0.00
     2   1     0.60   0.01  -0.00     0.00  -0.07  -0.00    -0.04   0.98   0.00
     3   7     0.04   0.00  -0.00    -0.00   0.04   0.00     0.00   0.00   0.00
     4   1     0.12   0.46  -0.00    -0.01   0.00   0.00     0.18  -0.08  -0.00
     5   1     0.08   0.20   0.00     0.57  -0.13  -0.00     0.03  -0.01   0.00
     6   1    -0.33  -0.12  -0.25    -0.26  -0.20   0.47    -0.02  -0.01   0.04
     7   1    -0.33  -0.12   0.25    -0.26  -0.20  -0.47    -0.02  -0.01  -0.04
                     13                     14                     15
                     A'                     A"                     A'
 Frequencies --   3642.2842              3645.5092              3908.1210
 Red. masses --      1.0892                 1.0895                 1.0699
 Frc consts  --      8.5135                 8.5307                 9.6278
 IR Inten    --     16.7541                16.0028                82.9964
  Atom  AN      X      Y      Z        X      Y      Z        X      Y      Z
     1   8    -0.00  -0.00   0.00    -0.00  -0.00   0.00    -0.06   0.03   0.00
     2   1    -0.00   0.01  -0.00     0.00   0.00  -0.00    -0.03  -0.18  -0.00
     3   7    -0.08  -0.01  -0.00     0.00   0.00  -0.08     0.00  -0.00   0.00
     4   1     0.00  -0.00  -0.00     0.00  -0.00  -0.00     0.94  -0.27   0.00
     5   1     0.77  -0.24  -0.00    -0.00   0.00  -0.02    -0.00  -0.00   0.00
     6   1     0.16   0.16  -0.34    -0.32  -0.28   0.56     0.00   0.00  -0.00
     7   1     0.16   0.16   0.34     0.32   0.28   0.56     0.00   0.00   0.00

 -------------------
 - Thermochemistry -
 -------------------
 Temperature   298.150 Kelvin.  Pressure   1.00000 Atm.
 Atom     1 has atomic number  8 and mass  15.99491
 Atom     2 has atomic number  1 and mass   1.00783
 Atom     3 has atomic number  7 and mass  14.00307
 Atom     4 has atomic number  1 and mass   1.00783
 Atom     5 has atomic number  1 and mass   1.00783
 Atom     6 has atomic number  1 and mass   1.00783
 Atom     7 has atomic number  1 and mass   1.00783
 Molecular mass:    35.03711 amu.
 Principal axes and moments of inertia in atomic units:
                           1         2         3
     Eigenvalues --    12.41282 285.22386 288.09764
           X           -0.02202   0.99976   0.00000
           Y            0.99976   0.02202   0.00000
           Z           -0.00000   0.00000   1.00000
 This molecule is an asymmetric top.
 Rotational symmetry number  1.
 Rotational temperatures (Kelvin)      6.97778     0.30367     0.30064
 Rotational constants (GHZ):         145.39331     6.32746     6.26434
    1 imaginary frequencies ignored.
 Zero-point vibrational energy     156097.2 (Joules/Mol)
                                   37.30812 (Kcal/Mol)
 Warning -- explicit consideration of   4 degrees of freedom as
           vibrations may cause significant error
 Vibrational temperatures:    247.96   262.10   281.82   634.49  1026.26
          (Kelvin)           1574.85  2386.16  2401.96  2416.39  5034.47
                             5173.45  5240.43  5245.07  5622.91
 
 Zero-point correction=                           0.059454 (Hartree/Particle)
 Thermal correction to Energy=                    0.064460
 Thermal correction to Enthalpy=                  0.065405
 Thermal correction to Gibbs Free Energy=         0.033939
 Sum of electronic and zero-point Energies=           -132.740587
 Sum of electronic and thermal Energies=              -132.735581
 Sum of electronic and thermal Enthalpies=            -132.734636
 Sum of electronic and thermal Free Energies=         -132.766101
 
                     E (Thermal)             CV                S
                      KCal/Mol        Cal/Mol-Kelvin    Cal/Mol-Kelvin
 Total                   40.449             14.140             66.224
 Electronic               0.000              0.000              0.000
 Translational            0.889              2.981             36.592
 Rotational               0.889              2.981             21.550
 Vibrational             38.672              8.179              8.082
 Vibration     1          0.626              1.877              2.410
 Vibration     2          0.630              1.864              2.306
 Vibration     3          0.636              1.846              2.171
 Vibration     4          0.801              1.381              0.823
                       Q            Log10(Q)             Ln(Q)
 Total Bot       0.244894D-15        -15.611022        -35.945706
 Total V=0       0.544530D+12         11.736021         27.023188
 Vib (Bot)       0.262778D-26        -26.580412        -61.203660
 Vib (Bot)    1  0.116844D+01          0.067608          0.155673
 Vib (Bot)    2  0.110170D+01          0.042065          0.096859
 Vib (Bot)    3  0.101955D+01          0.008408          0.019361
 Vib (Bot)    4  0.391692D+00         -0.407056         -0.937280
 Vib (V=0)       0.584294D+01          0.766631          1.765234
 Vib (V=0)    1  0.177093D+01          0.248201          0.571504
 Vib (V=0)    2  0.170986D+01          0.232960          0.536409
 Vib (V=0)    3  0.163555D+01          0.213665          0.491981
 Vib (V=0)    4  0.113516D+01          0.055055          0.126770
 Electronic      0.100000D+01          0.000000          0.000000
 Translational   0.815167D+07          6.911246         15.913733
 Rotational      0.114326D+05          4.058144          9.344221
 ***** Axes restored to original set *****
 -------------------------------------------------------------------
 Center     Atomic                   Forces (Hartrees/Bohr)
 Number     Number              X              Y              Z
 -------------------------------------------------------------------
      1        8           0.000000764    0.001107949    0.000000000
      2        1          -0.000000870   -0.001656515   -0.000000000
      3        7           0.000001884    0.000544242    0.000000000
      4        1           0.000000055   -0.000000035   -0.000000000
      5        1           0.000000750   -0.000000622    0.000000000
      6        1          -0.000001291    0.000002490    0.000003119
      7        1          -0.000001291    0.000002490   -0.000003119
 -------------------------------------------------------------------
 Cartesian Forces:  Max     0.001656515 RMS     0.000450811
 -----------------------------------------------------------------------------------------------
                       Internal Coordinate Forces (Hartree/Bohr or radian)
  Cent   Atom   N1       Length/X         N2         Alpha/Y        N3         Beta/Z          J
 -----------------------------------------------------------------------------------------------
      1  O 
         X        1   0.000000(     1)
      2  H        1  -0.000001(     2)      2   0.000000(     8)
      3  N        1   0.000000(     3)      2  -0.000000(     9)      3  -0.003051(    14)     0
      4  H        1   0.000000(     4)      2   0.000000(    10)      3  -0.000000(    15)     0
      5  H        4  -0.000000(     5)      1   0.000002(    11)      2  -0.000000(    16)     0
      6  H        4   0.000001(     6)      1  -0.000003(    12)      6  -0.000006(    17)     0
      7  H        4   0.000001(     7)      1  -0.000003(    13)      6   0.000006(    18)     0
 -----------------------------------------------------------------------------------------------
 Internal  Forces:  Max     0.003051272 RMS     0.000719196

 GradGradGradGradGradGradGradGradGradGradGradGradGradGradGradGradGradGrad
 Berny optimization.
 Search for a local minimum.
 Step number   1 out of a maximum of    2
 All quantities printed in internal units (Hartrees-Bohrs-Radians)
 Second derivative matrix not updated -- analytic derivatives used.
 The second derivative matrix:
                          R1        R2        R3        A1        A2
           R1           0.54581
           R2          -0.00003   0.46151
           R3           0.00005  -0.00654   0.91813
           A1           0.03074  -0.00031   0.00062   0.14333
           A2          -0.00042  -0.02707  -0.03437  -0.00224   0.08715
           A3           0.00079  -0.03108  -0.09208   0.00376   0.05210
           D1           0.00015   0.03694  -0.02772  -0.00052  -0.13094
           Rah         -0.00710  -0.00119  -0.00144   0.02289   0.00087
           Rab         -0.00027   0.00061   0.00079   0.00290   0.00061
                          A3        D1        Rah       Rab
           A3           0.25830
           D1           0.15321   0.51317
           Rah          0.00816  -0.00005   0.46630
           Rab          0.00002  -0.00059   0.00649   0.01212
 ITU=  0
     Eigenvalues ---    0.01058   0.01209   0.13942   0.22267   0.46340
     Eigenvalues ---    0.47005   0.54850   0.60153   0.93758
 Angle between quadratic step and forces=  36.31 degrees.
 Linear search not attempted -- first point.
 Variable       Old X    -DE/DX   Delta X   Delta X   Delta X     New X
                                 (Linear)    (Quad)   (Total)
    R1        1.81456   0.00000   0.00000   0.00000   0.00000   1.81456
    R2        1.91399  -0.00000   0.00000  -0.00000  -0.00000   1.91399
    R3        1.91333   0.00000   0.00000  -0.00000  -0.00000   1.91333
    A1        1.82141  -0.00000   0.00000  -0.00000  -0.00000   1.82141
    A2        1.87438   0.00000   0.00000  -0.00001  -0.00001   1.87437
    A3        1.99277  -0.00001   0.00000  -0.00001  -0.00001   1.99276
    D1        2.06305  -0.00001   0.00000  -0.00003  -0.00003   2.06302
   Rah        1.84204  -0.00000   0.00000  -0.00000  -0.00000   1.84204
   Rab        5.56184   0.00000   0.00000   0.00000   0.00000   5.56185
         Item               Value     Threshold  Converged?
 Maximum Force            0.000013     0.000015     YES
 RMS     Force            0.000005     0.000010     YES
 Maximum Displacement     0.000026     0.000060     YES
 RMS     Displacement     0.000010     0.000040     YES
 Predicted change in Energy=-1.851724D-10
 Optimization completed.
    -- Stationary point found.
                       ----------------------------
                       !   Optimized Parameters   !
                       ! (Angstroms and Degrees)  !
 ----------------------                            ----------------------
 !      Name          Value   Derivative information (Atomic Units)     !
 ------------------------------------------------------------------------
 !       R1          0.9602   -DE/DX =    0.0                           !
 !       R2          1.0128   -DE/DX =    0.0                           !
 !       R3          1.0125   -DE/DX =    0.0                           !
 !       A1        104.359    -DE/DX =    0.0                           !
 !       A2        107.3941   -DE/DX =    0.0                           !
 !       A3        114.1773   -DE/DX =    0.0                           !
 !       D1        118.2039   -DE/DX =    0.0                           !
 !       Rah         0.9748   -DE/DX =    0.0                           !
 !       Rab         2.9432   -DE/DX =    0.0                           !
 ------------------------------------------------------------------------
 GradGradGradGradGradGradGradGradGradGradGradGradGradGradGradGradGradGrad


 ----------------------------------------------------------------------

 Electric dipole moment (input orientation):
 (Debye = 10**-18 statcoulomb cm , SI units = C m)
                  (au)            (Debye)         (10**-30 SI)
   Tot        0.146685D+01      0.372837D+01      0.124365D+02
   x          0.137853D+01      0.350387D+01      0.116877D+02
   y         -0.501319D+00     -0.127422D+01     -0.425036D+01
   z          0.000000D+00      0.000000D+00      0.000000D+00

 Dipole polarizability, Alpha (input orientation).
 (esu units = cm**3 , SI units = C**2 m**2 J**-1)
 Alpha(0;0):
               (au)            (10**-24 esu)      (10**-40 SI)
   iso        0.239676D+02      0.355164D+01      0.395173D+01
   aniso      0.629890D+01      0.933400D+00      0.103855D+01
   xx         0.280925D+02      0.416289D+01      0.463183D+01
   yx         0.665882D+00      0.986735D-01      0.109789D+00
   yy         0.220498D+02      0.326744D+01      0.363552D+01
   zx         0.000000D+00      0.000000D+00      0.000000D+00
   zy         0.000000D+00      0.000000D+00      0.000000D+00
   zz         0.217606D+02      0.322459D+01      0.358784D+01

 ----------------------------------------------------------------------

 Dipole orientation:
     8         -0.00000000          0.00000000          0.00000000
     1          0.21515586          0.59163664          1.73112385
     7          0.64963983          1.78638281          5.22694114
     1         -0.61716544         -1.69708455          0.17787204
     1          1.30310609          3.58328753          5.14044158
     1         -0.96942417          1.83520801          6.24531933
     1          1.92184478          0.78376289          6.24531933

 Electric dipole moment (dipole orientation):
 (Debye = 10**-18 statcoulomb cm , SI units = C m)
                  (au)            (Debye)         (10**-30 SI)
   Tot        0.146685D+01      0.372837D+01      0.124365D+02
   x          0.000000D+00      0.000000D+00      0.000000D+00
   y          0.000000D+00      0.000000D+00      0.000000D+00
   z          0.146685D+01      0.372837D+01      0.124365D+02

 Dipole polarizability, Alpha (dipole orientation).
 (esu units = cm**3 , SI units = C**2 m**2 J**-1)
 Alpha(0;0):
               (au)            (10**-24 esu)      (10**-40 SI)
   iso        0.239676D+02      0.355164D+01      0.395173D+01
   aniso      0.629890D+01      0.933400D+00      0.103855D+01
   xx         0.219268D+02      0.324921D+01      0.361524D+01
   yx         0.456966D+00      0.677153D-01      0.753435D-01
   yy         0.230172D+02      0.341079D+01      0.379502D+01
   zx         0.837722D+00      0.124138D+00      0.138122D+00
   zy         0.230357D+01      0.341354D+00      0.379808D+00
   zz         0.269590D+02      0.399491D+01      0.444494D+01

 ----------------------------------------------------------------------
 1\1\GINC-N2199\Freq\RMP2-FC\Aug-CC-pVTZ\H5N1O1\GDS001\05-Jun-2023\1\\#
 N Geom=AllCheck Guess=TCheck SCRF=Check GenChk RMP2(FC)/Aug-CC-pVTZ Fr
 eq\\Optimizaiton Linear\\0,1\O\X,1,1.\H,1,Rah,2,90.\N,1,Rab,2,90.,3,0.
 ,0\H,1,R1,2,90.,3,A1,0\H,4,R2,1,A2,2,-90.,0\H,4,R3,1,A3,6,D1,0\H,4,R3,
 1,A3,6,-D1,0\\R1=0.96022375\R2=1.01284116\R3=1.01249265\A1=104.3589655
 5\A2=107.39414652\A3=114.1772854\D1=118.20391036\Rah=0.97476622\Rab=2.
 94320112\\Version=ES64L-G16RevA.03\State=1-A'\HF=-132.2871037\MP2=-132
 .8000409\RMSD=1.303e-09\RMSF=4.508e-04\ZeroPoint=0.0594543\Thermal=0.0
 644603\Dipole=1.3785284,-0.5013186,0.\DipoleDeriv=-0.8711259,-0.101817
 3,0.,-0.0682031,-0.3914671,0.,0.,0.,-0.646847,0.7652648,0.0770514,0.,0
 .05476,0.1880143,0.,0.,0.,0.2396155,-0.7243031,-0.0234799,0.,-0.016399
 2,-0.3507139,0.,0.,0.,-0.3353554,0.2861868,0.0362483,0.,0.0202423,0.11
 64315,0.,0.,0.,0.3092246,0.1993539,-0.0792966,0.,-0.0784535,0.1243413,
 0.,0.,0.,0.1566543,0.1723117,0.0456471,-0.073047,0.0440268,0.1566969,0
 .0050695,-0.073478,0.006023,0.138354,0.1723117,0.0456471,0.073047,0.04
 40268,0.1566969,-0.0050695,0.073478,-0.006023,0.138354\Polar=28.092544
 8,0.6658817,22.0497997,0.,0.,21.7606055\PG=CS [SG(H3N1O1),X(H2)]\NImag
 =1\\0.55008226,0.11235643,0.54578667,0.,0.,0.00447996,-0.46233505,-0.0
 2399711,0.,0.46629882,0.03456307,-0.04953545,0.,0.01601334,0.06366466,
 0.,0.,-0.00889451,0.,0.,0.01716393,-0.01342279,-0.00102455,0.,0.003113
 24,-0.00012626,0.,0.24236688,-0.00030629,0.00492009,0.,-0.00222654,-0.
 00814675,0.,-0.03353917,0.65470622,0.,0.,0.00461570,0.,0.,-0.00874277,
 0.,0.,0.66128789,-0.07062179,-0.08757571,0.,-0.01045666,-0.04973749,0.
 ,-0.00099158,0.00201276,0.,0.08256180,-0.14620018,-0.50084582,0.,0.010
 01029,-0.00616400,0.,0.00071889,0.00018773,0.,0.13553182,0.50677767,0.
 ,0.,0.00035792,0.,0.,-0.00040127,0.,0.,0.00003431,0.,0.,0.00004041,-0.
 00126263,0.00216142,0.,0.00007913,-0.00459255,0.,-0.05449096,-0.148175
 51,0.,0.00069906,0.00004649,0.,0.05483819,0.00082230,-0.00020267,0.,-0
 .00127040,0.00020567,0.,-0.09438827,-0.39887197,0.,-0.00003628,-0.0000
 2654,0.,0.11325531,0.43046331,0.,0.,-0.00001860,0.,0.,0.00009942,0.,0.
 ,-0.05901848,0.,0.,-0.00012211,0.,0.,0.05836820,-0.00122000,-0.0009602
 4,0.00181499,0.00165026,0.00193994,-0.00367320,-0.08828739,0.09111737,
 -0.16117933,-0.00059542,-0.00005365,-0.00024043,0.00006861,-0.00919133
 ,0.01118381,0.08664109,-0.00061767,-0.00006141,0.00028952,0.00073521,-
 0.00001206,-0.00045800,0.06417967,-0.12639765,0.12551524,-0.00009755,0
 .00003549,-0.00011994,0.01865242,-0.01578390,0.03453613,-0.07543183,0.
 13451978,0.00090950,0.00011853,-0.00027023,-0.00134063,-0.00032111,0.0
 0038760,-0.11480031,0.12926423,-0.29908832,0.00003759,0.00006746,0.000
 04537,-0.00190458,-0.00432808,0.00034579,0.13459630,-0.14228198,0.3232
 6835,-0.00122000,-0.00096024,-0.00181499,0.00165026,0.00193994,0.00367
 320,-0.08828739,0.09111737,0.16117933,-0.00059542,-0.00005365,0.000240
 43,0.00006861,-0.00919133,-0.01118381,0.00174284,-0.00742026,-0.017497
 87,0.08664109,-0.00061767,-0.00006141,-0.00028952,0.00073521,-0.000012
 06,0.00045800,0.06417967,-0.12639765,-0.12551524,-0.00009755,0.0000354
 9,0.00011994,0.01865242,-0.01578390,-0.03453613,-0.00742026,0.00769975
 ,0.01748097,-0.07543183,0.13451978,-0.00090950,-0.00011853,-0.00027023
 ,0.00134063,0.00032111,0.00038760,0.11480031,-0.12926423,-0.29908832,-
 0.00003759,-0.00006746,0.00004537,0.00190458,0.00432808,0.00034579,0.0
 1749787,-0.01748097,-0.02468856,-0.13459630,0.14228198,0.32326835\\-0.
 00000076,-0.00110795,0.,0.00000087,0.00165651,0.,-0.00000188,-0.000544
 24,0.,-0.00000005,0.00000003,0.,-0.00000075,0.00000062,0.,0.00000129,-
 0.00000249,-0.00000312,0.00000129,-0.00000249,0.00000312\\\@


 IT IS DOUBTED WHETHER A MAN EVER BRINGS HIS FACULTIES TO BEAR WITH THEIR FULL FORCE
 ON A SUBJECT UNTIL HE WRITES UPON IT.

                          -- CICERO
 Job cpu time:       0 days  1 hours 42 minutes  1.7 seconds.
 Elapsed time:       0 days  0 hours  3 minutes 40.5 seconds.
 File lengths (MBytes):  RWF=   4544 Int=      0 D2E=      0 Chk=     12 Scr=      8
 Normal termination of Gaussian 16 at Mon Jun  5 14:15:23 2023.
