 Entering Gaussian System, Link 0=g16
 Input=hf_mp2_avtz_opt_freq.gjf
 Output=hf_mp2_avtz_opt_freq.log
 Initial command:
 /sw/contrib/gaussian/g16/A03/g16/l1.exe "/gscratch/scrubbed/gds001/Gau-109433.inp" -scrdir="/gscratch/scrubbed/gds001/"
 Entering Link 1 = /sw/contrib/gaussian/g16/A03/g16/l1.exe PID=    109434.
  
 Copyright (c) 1988,1990,1992,1993,1995,1998,2003,2009,2016,
            Gaussian, Inc.  All Rights Reserved.
  
 This is part of the Gaussian(R) 16 program.  It is based on
 the Gaussian(R) 09 system (copyright 2009, Gaussian, Inc.),
 the Gaussian(R) 03 system (copyright 2003, Gaussian, Inc.),
 the Gaussian(R) 98 system (copyright 1998, Gaussian, Inc.),
 the Gaussian(R) 94 system (copyright 1995, Gaussian, Inc.),
 the Gaussian 92(TM) system (copyright 1992, Gaussian, Inc.),
 the Gaussian 90(TM) system (copyright 1990, Gaussian, Inc.),
 the Gaussian 88(TM) system (copyright 1988, Gaussian, Inc.),
 the Gaussian 86(TM) system (copyright 1986, Carnegie Mellon
 University), and the Gaussian 82(TM) system (copyright 1983,
 Carnegie Mellon University). Gaussian is a federally registered
 trademark of Gaussian, Inc.
  
 This software contains proprietary and confidential information,
 including trade secrets, belonging to Gaussian, Inc.
  
 This software is provided under written license and may be
 used, copied, transmitted, or stored only in accord with that
 written license.
  
 The following legend is applicable only to US Government
 contracts under FAR:
  
                    RESTRICTED RIGHTS LEGEND
  
 Use, reproduction and disclosure by the US Government is
 subject to restrictions as set forth in subparagraphs (a)
 and (c) of the Commercial Computer Software - Restricted
 Rights clause in FAR 52.227-19.
  
 Gaussian, Inc.
 340 Quinnipiac St., Bldg. 40, Wallingford CT 06492
  
  
 ---------------------------------------------------------------
 Warning -- This program may not be used in any manner that
 competes with the business of Gaussian, Inc. or will provide
 assistance to any competitor of Gaussian, Inc.  The licensee
 of this program is prohibited from giving any competitor of
 Gaussian, Inc. access to this program.  By using this program,
 the user acknowledges that Gaussian, Inc. is engaged in the
 business of creating and licensing software in the field of
 computational chemistry and represents and warrants to the
 licensee that it is not a competitor of Gaussian, Inc. and that
 it will not use this program in any manner prohibited above.
 ---------------------------------------------------------------
  

 Cite this work as:
 Gaussian 16, Revision A.03,
 M. J. Frisch, G. W. Trucks, H. B. Schlegel, G. E. Scuseria, 
 M. A. Robb, J. R. Cheeseman, G. Scalmani, V. Barone, 
 G. A. Petersson, H. Nakatsuji, X. Li, M. Caricato, A. V. Marenich, 
 J. Bloino, B. G. Janesko, R. Gomperts, B. Mennucci, H. P. Hratchian, 
 J. V. Ortiz, A. F. Izmaylov, J. L. Sonnenberg, D. Williams-Young, 
 F. Ding, F. Lipparini, F. Egidi, J. Goings, B. Peng, A. Petrone, 
 T. Henderson, D. Ranasinghe, V. G. Zakrzewski, J. Gao, N. Rega, 
 G. Zheng, W. Liang, M. Hada, M. Ehara, K. Toyota, R. Fukuda, 
 J. Hasegawa, M. Ishida, T. Nakajima, Y. Honda, O. Kitao, H. Nakai, 
 T. Vreven, K. Throssell, J. A. Montgomery, Jr., J. E. Peralta, 
 F. Ogliaro, M. J. Bearpark, J. J. Heyd, E. N. Brothers, K. N. Kudin, 
 V. N. Staroverov, T. A. Keith, R. Kobayashi, J. Normand, 
 K. Raghavachari, A. P. Rendell, J. C. Burant, S. S. Iyengar, 
 J. Tomasi, M. Cossi, J. M. Millam, M. Klene, C. Adamo, R. Cammi, 
 J. W. Ochterski, R. L. Martin, K. Morokuma, O. Farkas, 
 J. B. Foresman, and D. J. Fox, Gaussian, Inc., Wallingford CT, 2016.
 
 ******************************************
 Gaussian 16:  ES64L-G16RevA.03 25-Dec-2016
                30-Mar-2023 
 ******************************************
 %nprocshared=32
 Will use up to   32 processors via shared memory.
 %mem=41GB
 -------------------------------------
 # mp2/aug-cc-pVTZ opt=(z-matrix) freq
 -------------------------------------
 1/10=7,18=40,38=1/1,3;
 2/12=2,17=6,18=5,29=3,40=1/2;
 3/5=16,6=1,7=10,11=9,25=1,30=1,71=1/1,2,3;
 4//1;
 5/5=2,38=5/2;
 8/6=4,10=1/1;
 9/15=2,16=-3/6;
 10/5=1/2;
 6/7=2,8=2,9=2,10=2/1;
 7/12=2,29=1/1,2,3,16;
 1/10=7,18=40/3(2);
 2/29=3/2;
 99//99;
 2/29=3/2;
 3/5=16,6=1,7=10,11=9,25=1,30=1,71=1/1,2,3;
 4/5=5,16=3,69=1/1;
 5/5=2,38=5/2;
 8/6=4,10=1/1;
 9/15=2,16=-3/6;
 10/5=1/2;
 7/12=2/1,2,3,16;
 1/18=40/3(-8);
 2/29=3/2;
 6/7=2,8=2,9=2,10=2/1;
 99//99;
 ----
 blah
 ----
 Symbolic Z-matrix:
 Charge =  0 Multiplicity = 1
 F
 H                    1    R1
       Variables:
  R1                    1.                       
 

 GradGradGradGradGradGradGradGradGradGradGradGradGradGradGradGradGradGrad
 Berny optimization.
 Initialization pass.
                       ----------------------------
                       !    Initial Parameters    !
                       ! (Angstroms and Degrees)  !
 ----------------------                            ----------------------
 !      Name          Value   Derivative information (Atomic Units)     !
 ------------------------------------------------------------------------
 !       R1          1.0      estimate D2E/DX2                          !
 ------------------------------------------------------------------------
 Trust Radius=3.00D-01 FncErr=1.00D-07 GrdErr=1.00D-07 EigMax=2.50D+02 EigMin=1.00D-04
 Number of steps in this run=     20 maximum allowed number of steps=    100.
 GradGradGradGradGradGradGradGradGradGradGradGradGradGradGradGradGradGrad

 ---------------------------------------------------------------------------------------------------
                            Z-MATRIX (ANGSTROMS AND DEGREES)
   CD    Cent   Atom    N1       Length/X        N2       Alpha/Y        N3        Beta/Z          J
 ---------------------------------------------------------------------------------------------------
      1      1  F 
      2      2  H        1   1.000000(     1)
 ---------------------------------------------------------------------------------------------------
                         Z-Matrix orientation:                         
 ---------------------------------------------------------------------
 Center     Atomic      Atomic             Coordinates (Angstroms)
 Number     Number       Type             X           Y           Z
 ---------------------------------------------------------------------
      1          9           0        0.000000    0.000000    0.000000
      2          1           0        0.000000    0.000000    1.000000
 ---------------------------------------------------------------------
 Stoichiometry    FH
 Framework group  C*V[C*(HF)]
 Deg. of freedom     1
 Full point group                 C*V     NOp   4
 Largest Abelian subgroup         C2V     NOp   4
 Largest concise Abelian subgroup C1      NOp   1
                         Standard orientation:                         
 ---------------------------------------------------------------------
 Center     Atomic      Atomic             Coordinates (Angstroms)
 Number     Number       Type             X           Y           Z
 ---------------------------------------------------------------------
      1          9           0        0.000000    0.000000    0.100000
      2          1           0        0.000000    0.000000   -0.900000
 ---------------------------------------------------------------------
 Rotational constants (GHZ):           0.0000000         528.0562352         528.0562352
 Standard basis: Aug-CC-pVTZ (5D, 7F)
 There are    37 symmetry adapted cartesian basis functions of A1  symmetry.
 There are     7 symmetry adapted cartesian basis functions of A2  symmetry.
 There are    18 symmetry adapted cartesian basis functions of B1  symmetry.
 There are    18 symmetry adapted cartesian basis functions of B2  symmetry.
 There are    30 symmetry adapted basis functions of A1  symmetry.
 There are     7 symmetry adapted basis functions of A2  symmetry.
 There are    16 symmetry adapted basis functions of B1  symmetry.
 There are    16 symmetry adapted basis functions of B2  symmetry.
    69 basis functions,    99 primitive gaussians,    80 cartesian basis functions
     5 alpha electrons        5 beta electrons
       nuclear repulsion energy         4.7625948983 Hartrees.
 NAtoms=    2 NActive=    2 NUniq=    2 SFac= 1.00D+00 NAtFMM=   60 NAOKFM=F Big=F
 Integral buffers will be    131072 words long.
 Raffenetti 1 integral format.
 Two-electron integral symmetry is turned on.
 One-electron integrals computed using PRISM.
 NBasis=    69 RedAO= T EigKep=  4.59D-04  NBF=    30     7    16    16
 NBsUse=    69 1.00D-06 EigRej= -1.00D+00 NBFU=    30     7    16    16
 ExpMin= 2.53D-02 ExpMax= 1.95D+04 ExpMxC= 6.65D+02 IAcc=3 IRadAn=         5 AccDes= 0.00D+00
 Harris functional with IExCor=  205 and IRadAn=       5 diagonalized for initial guess.
 HarFok:  IExCor=  205 AccDes= 0.00D+00 IRadAn=         5 IDoV= 1 UseB2=F ITyADJ=14
 ICtDFT=  3500011 ScaDFX=  1.000000  1.000000  1.000000  1.000000
 FoFCou: FMM=F IPFlag=           0 FMFlag=      100000 FMFlg1=           0
         NFxFlg=           0 DoJE=T BraDBF=F KetDBF=T FulRan=T
         wScrn=  0.000000 ICntrl=       500 IOpCl=  0 I1Cent=   200000004 NGrid=           0
         NMat0=    1 NMatS0=      1 NMatT0=    0 NMatD0=    1 NMtDS0=    0 NMtDT0=    0
 Petite list used in FoFCou.
 Initial guess orbital symmetries:
       Occupied  (SG) (SG) (SG) (PI) (PI)
       Virtual   (SG) (SG) (PI) (PI) (SG) (PI) (PI) (SG) (SG) (SG)
                 (DLTA) (DLTA) (PI) (PI) (SG) (PI) (PI) (PI) (PI)
                 (SG) (DLTA) (DLTA) (SG) (PI) (PI) (SG) (SG) (DLTA)
                 (DLTA) (PI) (PI) (PHI) (PHI) (SG) (SG) (DLTA)
                 (DLTA) (PI) (PI) (SG) (DLTA) (DLTA) (PI) (PI)
                 (PI) (PI) (SG) (SG) (PI) (PI) (SG) (PHI) (PHI)
                 (DLTA) (DLTA) (PI) (PI) (DLTA) (DLTA) (SG) (PI)
                 (PI) (SG) (SG)
 The electronic state of the initial guess is 1-SG.
 Keep R1 ints in memory in symmetry-blocked form, NReq=18493064.
 Requested convergence on RMS density matrix=1.00D-08 within 128 cycles.
 Requested convergence on MAX density matrix=1.00D-06.
 Requested convergence on             energy=1.00D-06.
 No special actions if energy rises.
 SCF Done:  E(RHF) =  -100.051044159     A.U. after    9 cycles
            NFock=  9  Conv=0.59D-08     -V/T= 2.0023
 ExpMin= 2.53D-02 ExpMax= 1.95D+04 ExpMxC= 6.65D+02 IAcc=3 IRadAn=         5 AccDes= 0.00D+00
 HarFok:  IExCor=  205 AccDes= 0.00D+00 IRadAn=         5 IDoV=-2 UseB2=F ITyADJ=14
 ICtDFT= 12500011 ScaDFX=  1.000000  1.000000  1.000000  1.000000
 Range of M.O.s used for correlation:     2    69
 NBasis=    69 NAE=     5 NBE=     5 NFC=     1 NFV=     0
 NROrb=     68 NOA=     4 NOB=     4 NVA=    64 NVB=    64

 **** Warning!!: The largest alpha MO coefficient is  0.14193412D+02

 Fully direct method using O(ONN) memory.
 JobTyp=1 Pass  1:  I=   2 to   5 NPSUse= 32 ParTrn=T ParDer=T DoDerP=T.
 Spin components of T(2) and E(2):
     alpha-alpha T2 =       0.7308907474D-02 E2=     -0.3614218668D-01
     alpha-beta  T2 =       0.4058687107D-01 E2=     -0.2119576703D+00
     beta-beta   T2 =       0.7308907474D-02 E2=     -0.3614218668D-01
 ANorm=    0.1027231564D+01
 E2 =    -0.2842420437D+00 EUMP2 =    -0.10033528620223D+03
          IDoAtm=11
          Differentiating once with respect to electric field.
                with respect to dipole field.
          Differentiating once with respect to nuclear coordinates.
 Keep R1 ints in memory in symmetry-blocked form, NReq=18493632.
          There are     1 degrees of freedom in the 1st order CPHF.  IDoFFX=0 NUNeed=     1.
 LinEq1:  Iter=  0 NonCon=     1 RMS=6.04D-03 Max=5.63D-02 NDo=     1
 AX will form     1 AO Fock derivatives at one time.
 LinEq1:  Iter=  1 NonCon=     1 RMS=1.06D-03 Max=1.02D-02 NDo=     1
 LinEq1:  Iter=  2 NonCon=     1 RMS=3.86D-04 Max=2.61D-03 NDo=     1
 LinEq1:  Iter=  3 NonCon=     1 RMS=8.26D-05 Max=5.50D-04 NDo=     1
 LinEq1:  Iter=  4 NonCon=     1 RMS=1.18D-05 Max=6.95D-05 NDo=     1
 LinEq1:  Iter=  5 NonCon=     1 RMS=1.28D-06 Max=8.53D-06 NDo=     1
 LinEq1:  Iter=  6 NonCon=     1 RMS=1.02D-07 Max=4.94D-07 NDo=     1
 LinEq1:  Iter=  7 NonCon=     1 RMS=8.88D-09 Max=5.97D-08 NDo=     1
 LinEq1:  Iter=  8 NonCon=     1 RMS=6.57D-10 Max=4.15D-09 NDo=     1
 LinEq1:  Iter=  9 NonCon=     0 RMS=5.14D-11 Max=3.53D-10 NDo=     1
 Linear equations converged to 1.000D-10 1.000D-09 after     9 iterations.
 End of Minotr F.D. properties file   721 does not exist.
 End of Minotr F.D. properties file   722 does not exist.
 End of Minotr F.D. properties file   788 does not exist.

 **********************************************************************

            Population analysis using the SCF density.

 **********************************************************************

 Orbital symmetries:
       Occupied  (SG) (SG) (SG) (PI) (PI)
       Virtual   (SG) (SG) (SG) (PI) (PI) (PI) (PI) (SG) (SG) (SG)
                 (DLTA) (DLTA) (PI) (PI) (SG) (PI) (PI) (DLTA)
                 (DLTA) (SG) (PI) (PI) (SG) (PI) (PI) (SG) (SG)
                 (DLTA) (DLTA) (PI) (PI) (SG) (PHI) (PHI) (DLTA)
                 (DLTA) (SG) (PI) (PI) (SG) (DLTA) (DLTA) (PI)
                 (PI) (PI) (PI) (SG) (SG) (PI) (PI) (SG) (PHI)
                 (PHI) (DLTA) (DLTA) (PI) (PI) (DLTA) (DLTA) (SG)
                 (PI) (PI) (SG) (SG)
 The electronic state is 1-SG.
 Alpha  occ. eigenvalues --  -26.30032  -1.57642  -0.73651  -0.64240  -0.64240
 Alpha virt. eigenvalues --    0.02812   0.13490   0.20060   0.20298   0.20298
 Alpha virt. eigenvalues --    0.28184   0.28184   0.31230   0.41038   0.67520
 Alpha virt. eigenvalues --    0.75795   0.75795   0.84243   0.84243   0.93621
 Alpha virt. eigenvalues --    1.02165   1.02165   1.07471   1.07471   1.08772
 Alpha virt. eigenvalues --    1.13737   1.13737   1.17075   1.64660   1.64660
 Alpha virt. eigenvalues --    1.87283   2.34401   2.81730   2.81730   2.87473
 Alpha virt. eigenvalues --    2.87473   2.91520   2.94090   2.94090   3.13349
 Alpha virt. eigenvalues --    3.13349   3.13521   3.58084   3.58084   3.95785
 Alpha virt. eigenvalues --    4.07515   4.07515   4.26166   4.26166   4.75861
 Alpha virt. eigenvalues --    4.75861   4.78751   5.42333   5.78902   5.78902
 Alpha virt. eigenvalues --    7.54609   8.83696   8.83696   8.92043   8.92043
 Alpha virt. eigenvalues --    9.18313   9.18313   9.35303   9.35303   9.36156
 Alpha virt. eigenvalues --    9.54184   9.54184   9.77614  13.65456
          Condensed to atoms (all electrons):
               1          2
     1  F    9.231082   0.178826
     2  H    0.178826   0.411265
 Mulliken charges:
               1
     1  F   -0.409908
     2  H    0.409908
 Sum of Mulliken charges =   0.00000
 Mulliken charges with hydrogens summed into heavy atoms:
               1
     1  F    0.000000
 Electronic spatial extent (au):  <R**2>=             14.2417
 Charge=             -0.0000 electrons
 Dipole moment (field-independent basis, Debye):
    X=              0.0000    Y=              0.0000    Z=             -2.0906  Tot=              2.0906
 Quadrupole moment (field-independent basis, Debye-Ang):
   XX=             -5.7805   YY=             -5.7805   ZZ=             -3.2718
   XY=              0.0000   XZ=              0.0000   YZ=              0.0000
 Traceless Quadrupole moment (field-independent basis, Debye-Ang):
   XX=             -0.8362   YY=             -0.8362   ZZ=              1.6724
   XY=              0.0000   XZ=              0.0000   YZ=              0.0000
 Octapole moment (field-independent basis, Debye-Ang**2):
  XXX=              0.0000  YYY=              0.0000  ZZZ=             -2.3800  XYY=              0.0000
  XXY=              0.0000  XXZ=             -0.1213  XZZ=              0.0000  YZZ=              0.0000
  YYZ=             -0.1213  XYZ=              0.0000
 Hexadecapole moment (field-independent basis, Debye-Ang**3):
 XXXX=             -3.8915 YYYY=             -3.8915 ZZZZ=             -3.1447 XXXY=              0.0000
 XXXZ=              0.0000 YYYX=              0.0000 YYYZ=              0.0000 ZZZX=              0.0000
 ZZZY=              0.0000 XXYY=             -1.2972 XXZZ=             -1.5343 YYZZ=             -1.5343
 XXYZ=              0.0000 YYXZ=              0.0000 ZZXY=              0.0000
 N-N= 4.762594898280D+00 E-N=-2.496509226308D+02  KE= 9.981975471114D+01
 Symmetry A1   KE= 8.728636248194D+01
 Symmetry A2   KE=-8.865955268619D-52
 Symmetry B1   KE= 6.266696114598D+00
 Symmetry B2   KE= 6.266696114597D+00
 Calling FoFJK, ICntrl=  10002127 FMM=F ISym2X=1 I1Cent= 0 IOpClX= 0 NMat=1 NMatS=1 NMatT=0.
 ***** Axes restored to original set *****
 -------------------------------------------------------------------
 Center     Atomic                   Forces (Hartrees/Bohr)
 Number     Number              X              Y              Z
 -------------------------------------------------------------------
      1        9          -0.000000000   -0.000000000    0.069248713
      2        1          -0.000000000   -0.000000000   -0.069248713
 -------------------------------------------------------------------
 Cartesian Forces:  Max     0.069248713 RMS     0.039980763
 -----------------------------------------------------------------------------------------------
                       Internal Coordinate Forces (Hartree/Bohr or radian)
  Cent   Atom   N1       Length/X         N2         Alpha/Y        N3         Beta/Z          J
 -----------------------------------------------------------------------------------------------
      1  F 
      2  H        1  -0.069249(     1)
 -----------------------------------------------------------------------------------------------
 Internal  Forces:  Max     0.069248713 RMS     0.069248713

 GradGradGradGradGradGradGradGradGradGradGradGradGradGradGradGradGradGrad
 Berny optimization.
 Search for a local minimum.
 Step number   1 out of a maximum of   20
 All quantities printed in internal units (Hartrees-Bohrs-Radians)
 Second derivative matrix not updated -- first step.
 The second derivative matrix:
                          R1
           R1           0.47688
 ITU=  0
     Eigenvalues ---    0.47688
 RFO step:  Lambda=-9.85213708D-03 EMin= 4.76883301D-01
 Linear search not attempted -- first point.
 Variable       Old X    -DE/DX   Delta X   Delta X   Delta X     New X
                                 (Linear)    (Quad)   (Total)
    R1        1.88973  -0.06925   0.00000  -0.14227  -0.14227   1.74745
         Item               Value     Threshold  Converged?
 Maximum Force            0.069249     0.000450     NO 
 RMS     Force            0.069249     0.000300     NO 
 Maximum Displacement     0.142272     0.001800     NO 
 RMS     Displacement     0.142272     0.001200     NO 
 Predicted change in Energy=-5.025778D-03
 GradGradGradGradGradGradGradGradGradGradGradGradGradGradGradGradGradGrad

 ---------------------------------------------------------------------------------------------------
                            Z-MATRIX (ANGSTROMS AND DEGREES)
   CD    Cent   Atom    N1       Length/X        N2       Alpha/Y        N3        Beta/Z          J
 ---------------------------------------------------------------------------------------------------
      1      1  F 
      2      2  H        1   0.924713(     1)
 ---------------------------------------------------------------------------------------------------
                         Z-Matrix orientation:                         
 ---------------------------------------------------------------------
 Center     Atomic      Atomic             Coordinates (Angstroms)
 Number     Number       Type             X           Y           Z
 ---------------------------------------------------------------------
      1          9           0        0.000000    0.000000    0.000000
      2          1           0        0.000000    0.000000    0.924713
 ---------------------------------------------------------------------
 Stoichiometry    FH
 Framework group  C*V[C*(HF)]
 Deg. of freedom     1
 Full point group                 C*V     NOp   4
 Largest Abelian subgroup         C2V     NOp   4
 Largest concise Abelian subgroup C1      NOp   1
                         Standard orientation:                         
 ---------------------------------------------------------------------
 Center     Atomic      Atomic             Coordinates (Angstroms)
 Number     Number       Type             X           Y           Z
 ---------------------------------------------------------------------
      1          9           0        0.000000    0.000000    0.092471
      2          1           0        0.000000    0.000000   -0.832242
 ---------------------------------------------------------------------
 Rotational constants (GHZ):           0.0000000         617.5416150         617.5416150
 Standard basis: Aug-CC-pVTZ (5D, 7F)
 There are    37 symmetry adapted cartesian basis functions of A1  symmetry.
 There are     7 symmetry adapted cartesian basis functions of A2  symmetry.
 There are    18 symmetry adapted cartesian basis functions of B1  symmetry.
 There are    18 symmetry adapted cartesian basis functions of B2  symmetry.
 There are    30 symmetry adapted basis functions of A1  symmetry.
 There are     7 symmetry adapted basis functions of A2  symmetry.
 There are    16 symmetry adapted basis functions of B1  symmetry.
 There are    16 symmetry adapted basis functions of B2  symmetry.
    69 basis functions,    99 primitive gaussians,    80 cartesian basis functions
     5 alpha electrons        5 beta electrons
       nuclear repulsion energy         5.1503491260 Hartrees.
 NAtoms=    2 NActive=    2 NUniq=    2 SFac= 1.00D+00 NAtFMM=   60 NAOKFM=F Big=F
 Integral buffers will be    131072 words long.
 Raffenetti 1 integral format.
 Two-electron integral symmetry is turned on.
 One-electron integrals computed using PRISM.
 NBasis=    69 RedAO= T EigKep=  3.69D-04  NBF=    30     7    16    16
 NBsUse=    69 1.00D-06 EigRej= -1.00D+00 NBFU=    30     7    16    16
 Initial guess from the checkpoint file:  "/gscratch/scrubbed/gds001/Gau-109434.chk"
 B after Tr=     0.000000    0.000000    0.000000
         Rot=    1.000000    0.000000    0.000000    0.000000 Ang=   0.00 deg.
 Initial guess orbital symmetries:
       Occupied  (SG) (SG) (SG) (PI) (PI)
       Virtual   (SG) (SG) (SG) (PI) (PI) (PI) (PI) (SG) (SG) (SG)
                 (DLTA) (DLTA) (PI) (PI) (SG) (PI) (PI) (DLTA)
                 (DLTA) (SG) (PI) (PI) (SG) (PI) (PI) (SG) (SG)
                 (DLTA) (DLTA) (PI) (PI) (SG) (PHI) (PHI) (DLTA)
                 (DLTA) (SG) (PI) (PI) (SG) (DLTA) (DLTA) (PI)
                 (PI) (PI) (PI) (SG) (SG) (PI) (PI) (SG) (PHI)
                 (PHI) (DLTA) (DLTA) (PI) (PI) (DLTA) (DLTA) (SG)
                 (PI) (PI) (SG) (SG)
 ExpMin= 2.53D-02 ExpMax= 1.95D+04 ExpMxC= 6.65D+02 IAcc=3 IRadAn=         5 AccDes= 0.00D+00
 Harris functional with IExCor=  205 and IRadAn=       5 diagonalized for initial guess.
 HarFok:  IExCor=  205 AccDes= 0.00D+00 IRadAn=         5 IDoV= 1 UseB2=F ITyADJ=14
 ICtDFT=  3500011 ScaDFX=  1.000000  1.000000  1.000000  1.000000
 FoFCou: FMM=F IPFlag=           0 FMFlag=      100000 FMFlg1=           0
         NFxFlg=           0 DoJE=T BraDBF=F KetDBF=T FulRan=T
         wScrn=  0.000000 ICntrl=       500 IOpCl=  0 I1Cent=   200000004 NGrid=           0
         NMat0=    1 NMatS0=      1 NMatT0=    0 NMatD0=    1 NMtDS0=    0 NMtDT0=    0
 Petite list used in FoFCou.
 Keep R1 ints in memory in symmetry-blocked form, NReq=18493064.
 Requested convergence on RMS density matrix=1.00D-08 within 128 cycles.
 Requested convergence on MAX density matrix=1.00D-06.
 Requested convergence on             energy=1.00D-06.
 No special actions if energy rises.
 SCF Done:  E(RHF) =  -100.060669105     A.U. after    9 cycles
            NFock=  9  Conv=0.11D-08     -V/T= 2.0011
 ExpMin= 2.53D-02 ExpMax= 1.95D+04 ExpMxC= 6.65D+02 IAcc=3 IRadAn=         5 AccDes= 0.00D+00
 HarFok:  IExCor=  205 AccDes= 0.00D+00 IRadAn=         5 IDoV=-2 UseB2=F ITyADJ=14
 ICtDFT= 12500011 ScaDFX=  1.000000  1.000000  1.000000  1.000000
 Range of M.O.s used for correlation:     2    69
 NBasis=    69 NAE=     5 NBE=     5 NFC=     1 NFV=     0
 NROrb=     68 NOA=     4 NOB=     4 NVA=    64 NVB=    64

 **** Warning!!: The largest alpha MO coefficient is  0.18401895D+02

 Fully direct method using O(ONN) memory.
 JobTyp=1 Pass  1:  I=   2 to   5 NPSUse= 32 ParTrn=T ParDer=T DoDerP=T.
 Spin components of T(2) and E(2):
     alpha-alpha T2 =       0.6969132843D-02 E2=     -0.3566070582D-01
     alpha-beta  T2 =       0.3828776674D-01 E2=     -0.2088911637D+00
     beta-beta   T2 =       0.6969132843D-02 E2=     -0.3566070582D-01
 ANorm=    0.1025780694D+01
 E2 =    -0.2802125753D+00 EUMP2 =    -0.10034088168040D+03
          IDoAtm=11
          Differentiating once with respect to electric field.
                with respect to dipole field.
          Differentiating once with respect to nuclear coordinates.
 Keep R1 ints in memory in symmetry-blocked form, NReq=18493730.
          There are     1 degrees of freedom in the 1st order CPHF.  IDoFFX=0 NUNeed=     1.
 LinEq1:  Iter=  0 NonCon=     1 RMS=5.57D-03 Max=5.09D-02 NDo=     1
 AX will form     1 AO Fock derivatives at one time.
 LinEq1:  Iter=  1 NonCon=     1 RMS=8.74D-04 Max=8.09D-03 NDo=     1
 LinEq1:  Iter=  2 NonCon=     1 RMS=3.14D-04 Max=2.09D-03 NDo=     1
 LinEq1:  Iter=  3 NonCon=     1 RMS=6.60D-05 Max=4.62D-04 NDo=     1
 LinEq1:  Iter=  4 NonCon=     1 RMS=9.00D-06 Max=5.14D-05 NDo=     1
 LinEq1:  Iter=  5 NonCon=     1 RMS=9.42D-07 Max=6.76D-06 NDo=     1
 LinEq1:  Iter=  6 NonCon=     1 RMS=7.71D-08 Max=3.82D-07 NDo=     1
 LinEq1:  Iter=  7 NonCon=     1 RMS=6.13D-09 Max=3.69D-08 NDo=     1
 LinEq1:  Iter=  8 NonCon=     1 RMS=4.81D-10 Max=3.03D-09 NDo=     1
 LinEq1:  Iter=  9 NonCon=     0 RMS=3.94D-11 Max=2.92D-10 NDo=     1
 Linear equations converged to 1.000D-10 1.000D-09 after     9 iterations.
 End of Minotr F.D. properties file   721 does not exist.
 End of Minotr F.D. properties file   722 does not exist.
 End of Minotr F.D. properties file   788 does not exist.
 Calling FoFJK, ICntrl=  10002127 FMM=F ISym2X=1 I1Cent= 0 IOpClX= 0 NMat=1 NMatS=1 NMatT=0.
 ***** Axes restored to original set *****
 -------------------------------------------------------------------
 Center     Atomic                   Forces (Hartrees/Bohr)
 Number     Number              X              Y              Z
 -------------------------------------------------------------------
      1        9          -0.000000000   -0.000000000    0.003311000
      2        1          -0.000000000   -0.000000000   -0.003311000
 -------------------------------------------------------------------
 Cartesian Forces:  Max     0.003311000 RMS     0.001911607
 -----------------------------------------------------------------------------------------------
                       Internal Coordinate Forces (Hartree/Bohr or radian)
  Cent   Atom   N1       Length/X         N2         Alpha/Y        N3         Beta/Z          J
 -----------------------------------------------------------------------------------------------
      1  F 
      2  H        1  -0.003311(     1)
 -----------------------------------------------------------------------------------------------
 Internal  Forces:  Max     0.003311000 RMS     0.003311000

 GradGradGradGradGradGradGradGradGradGradGradGradGradGradGradGradGradGrad
 Berny optimization.
 Search for a local minimum.
 Step number   2 out of a maximum of   20
 All quantities printed in internal units (Hartrees-Bohrs-Radians)
 Update second derivatives using D2CorN and points    1    2
 DE= -5.60D-03 DEPred=-5.03D-03 R= 1.11D+00
 TightC=F SS=  1.41D+00  RLast= 1.42D-01 DXNew= 5.0454D-01 4.2682D-01
 Trust test= 1.11D+00 RLast= 1.42D-01 DXMaxT set to 4.27D-01
 The second derivative matrix:
                          R1
           R1           0.46346
 ITU=  1  0
     Eigenvalues ---    0.46346
 RFO step:  Lambda= 0.00000000D+00 EMin= 4.63463077D-01
 Quartic linear search produced a step of  0.03855.
 Variable       Old X    -DE/DX   Delta X   Delta X   Delta X     New X
                                 (Linear)    (Quad)   (Total)
    R1        1.74745  -0.00331  -0.00548   0.00000  -0.00548   1.74197
         Item               Value     Threshold  Converged?
 Maximum Force            0.003311     0.000450     NO 
 RMS     Force            0.003311     0.000300     NO 
 Maximum Displacement     0.005484     0.001800     NO 
 RMS     Displacement     0.005484     0.001200     NO 
 Predicted change in Energy=-1.118855D-05
 GradGradGradGradGradGradGradGradGradGradGradGradGradGradGradGradGradGrad

 ---------------------------------------------------------------------------------------------------
                            Z-MATRIX (ANGSTROMS AND DEGREES)
   CD    Cent   Atom    N1       Length/X        N2       Alpha/Y        N3        Beta/Z          J
 ---------------------------------------------------------------------------------------------------
      1      1  F 
      2      2  H        1   0.921811(     1)
 ---------------------------------------------------------------------------------------------------
                         Z-Matrix orientation:                         
 ---------------------------------------------------------------------
 Center     Atomic      Atomic             Coordinates (Angstroms)
 Number     Number       Type             X           Y           Z
 ---------------------------------------------------------------------
      1          9           0        0.000000    0.000000    0.000000
      2          1           0        0.000000    0.000000    0.921811
 ---------------------------------------------------------------------
 Stoichiometry    FH
 Framework group  C*V[C*(HF)]
 Deg. of freedom     1
 Full point group                 C*V     NOp   4
 Largest Abelian subgroup         C2V     NOp   4
 Largest concise Abelian subgroup C1      NOp   1
                         Standard orientation:                         
 ---------------------------------------------------------------------
 Center     Atomic      Atomic             Coordinates (Angstroms)
 Number     Number       Type             X           Y           Z
 ---------------------------------------------------------------------
      1          9           0        0.000000    0.000000    0.092181
      2          1           0        0.000000    0.000000   -0.829630
 ---------------------------------------------------------------------
 Rotational constants (GHZ):           0.0000000         621.4361443         621.4361443
 Standard basis: Aug-CC-pVTZ (5D, 7F)
 There are    37 symmetry adapted cartesian basis functions of A1  symmetry.
 There are     7 symmetry adapted cartesian basis functions of A2  symmetry.
 There are    18 symmetry adapted cartesian basis functions of B1  symmetry.
 There are    18 symmetry adapted cartesian basis functions of B2  symmetry.
 There are    30 symmetry adapted basis functions of A1  symmetry.
 There are     7 symmetry adapted basis functions of A2  symmetry.
 There are    16 symmetry adapted basis functions of B1  symmetry.
 There are    16 symmetry adapted basis functions of B2  symmetry.
    69 basis functions,    99 primitive gaussians,    80 cartesian basis functions
     5 alpha electrons        5 beta electrons
       nuclear repulsion energy         5.1665639524 Hartrees.
 NAtoms=    2 NActive=    2 NUniq=    2 SFac= 1.00D+00 NAtFMM=   60 NAOKFM=F Big=F
 Integral buffers will be    131072 words long.
 Raffenetti 1 integral format.
 Two-electron integral symmetry is turned on.
 One-electron integrals computed using PRISM.
 NBasis=    69 RedAO= T EigKep=  3.66D-04  NBF=    30     7    16    16
 NBsUse=    69 1.00D-06 EigRej= -1.00D+00 NBFU=    30     7    16    16
 Initial guess from the checkpoint file:  "/gscratch/scrubbed/gds001/Gau-109434.chk"
 B after Tr=     0.000000    0.000000    0.000000
         Rot=    1.000000    0.000000    0.000000    0.000000 Ang=   0.00 deg.
 Initial guess orbital symmetries:
       Occupied  (SG) (SG) (SG) (PI) (PI)
       Virtual   (SG) (SG) (PI) (PI) (SG) (PI) (PI) (SG) (SG) (SG)
                 (DLTA) (DLTA) (PI) (PI) (SG) (PI) (PI) (SG) (DLTA)
                 (DLTA) (PI) (PI) (SG) (PI) (PI) (SG) (SG) (SG)
                 (DLTA) (DLTA) (PI) (PI) (PHI) (PHI) (DLTA) (DLTA)
                 (SG) (PI) (PI) (SG) (DLTA) (DLTA) (PI) (PI) (PI)
                 (PI) (SG) (SG) (PI) (PI) (SG) (PHI) (PHI) (DLTA)
                 (DLTA) (PI) (PI) (SG) (DLTA) (DLTA) (PI) (PI)
                 (SG) (SG)
 Keep R1 ints in memory in symmetry-blocked form, NReq=18493064.
 Requested convergence on RMS density matrix=1.00D-08 within 128 cycles.
 Requested convergence on MAX density matrix=1.00D-06.
 Requested convergence on             energy=1.00D-06.
 No special actions if energy rises.
 SCF Done:  E(RHF) =  -100.060834934     A.U. after    7 cycles
            NFock=  7  Conv=0.72D-08     -V/T= 2.0010
 ExpMin= 2.53D-02 ExpMax= 1.95D+04 ExpMxC= 6.65D+02 IAcc=3 IRadAn=         5 AccDes= 0.00D+00
 HarFok:  IExCor=  205 AccDes= 0.00D+00 IRadAn=         5 IDoV=-2 UseB2=F ITyADJ=14
 ICtDFT= 12500011 ScaDFX=  1.000000  1.000000  1.000000  1.000000
 Range of M.O.s used for correlation:     2    69
 NBasis=    69 NAE=     5 NBE=     5 NFC=     1 NFV=     0
 NROrb=     68 NOA=     4 NOB=     4 NVA=    64 NVB=    64

 **** Warning!!: The largest alpha MO coefficient is  0.18558137D+02

 Fully direct method using O(ONN) memory.
 JobTyp=1 Pass  1:  I=   2 to   5 NPSUse= 32 ParTrn=T ParDer=T DoDerP=T.
 Spin components of T(2) and E(2):
     alpha-alpha T2 =       0.6955941706D-02 E2=     -0.3564144899D-01
     alpha-beta  T2 =       0.3820286344D-01 E2=     -0.2087728749D+00
     beta-beta   T2 =       0.6955941706D-02 E2=     -0.3564144899D-01
 ANorm=    0.1025726448D+01
 E2 =    -0.2800557729D+00 EUMP2 =    -0.10034089070655D+03
          IDoAtm=11
          Differentiating once with respect to electric field.
                with respect to dipole field.
          Differentiating once with respect to nuclear coordinates.
 Keep R1 ints in memory in symmetry-blocked form, NReq=18493730.
          There are     1 degrees of freedom in the 1st order CPHF.  IDoFFX=0 NUNeed=     1.
 LinEq1:  Iter=  0 NonCon=     1 RMS=5.55D-03 Max=5.07D-02 NDo=     1
 AX will form     1 AO Fock derivatives at one time.
 LinEq1:  Iter=  1 NonCon=     1 RMS=8.68D-04 Max=8.01D-03 NDo=     1
 LinEq1:  Iter=  2 NonCon=     1 RMS=3.11D-04 Max=2.07D-03 NDo=     1
 LinEq1:  Iter=  3 NonCon=     1 RMS=6.54D-05 Max=4.58D-04 NDo=     1
 LinEq1:  Iter=  4 NonCon=     1 RMS=8.91D-06 Max=5.07D-05 NDo=     1
 LinEq1:  Iter=  5 NonCon=     1 RMS=9.31D-07 Max=6.69D-06 NDo=     1
 LinEq1:  Iter=  6 NonCon=     1 RMS=7.62D-08 Max=3.78D-07 NDo=     1
 LinEq1:  Iter=  7 NonCon=     1 RMS=6.03D-09 Max=3.59D-08 NDo=     1
 LinEq1:  Iter=  8 NonCon=     1 RMS=4.74D-10 Max=2.99D-09 NDo=     1
 LinEq1:  Iter=  9 NonCon=     0 RMS=3.89D-11 Max=2.89D-10 NDo=     1
 Linear equations converged to 1.000D-10 1.000D-09 after     9 iterations.
 End of Minotr F.D. properties file   721 does not exist.
 End of Minotr F.D. properties file   722 does not exist.
 End of Minotr F.D. properties file   788 does not exist.
 Calling FoFJK, ICntrl=  10002127 FMM=F ISym2X=1 I1Cent= 0 IOpClX= 0 NMat=1 NMatS=1 NMatT=0.
 ***** Axes restored to original set *****
 -------------------------------------------------------------------
 Center     Atomic                   Forces (Hartrees/Bohr)
 Number     Number              X              Y              Z
 -------------------------------------------------------------------
      1        9          -0.000000000   -0.000000000   -0.000031005
      2        1          -0.000000000   -0.000000000    0.000031005
 -------------------------------------------------------------------
 Cartesian Forces:  Max     0.000031005 RMS     0.000017901
 -----------------------------------------------------------------------------------------------
                       Internal Coordinate Forces (Hartree/Bohr or radian)
  Cent   Atom   N1       Length/X         N2         Alpha/Y        N3         Beta/Z          J
 -----------------------------------------------------------------------------------------------
      1  F 
      2  H        1   0.000031(     1)
 -----------------------------------------------------------------------------------------------
 Internal  Forces:  Max     0.000031005 RMS     0.000031005

 GradGradGradGradGradGradGradGradGradGradGradGradGradGradGradGradGradGrad
 Berny optimization.
 Search for a local minimum.
 Step number   3 out of a maximum of   20
 All quantities printed in internal units (Hartrees-Bohrs-Radians)
 Update second derivatives using D2CorN and points    2    3
 DE= -9.03D-06 DEPred=-1.12D-05 R= 8.07D-01
 TightC=F SS=  1.41D+00  RLast= 5.48D-03 DXNew= 7.1781D-01 1.6453D-02
 Trust test= 8.07D-01 RLast= 5.48D-03 DXMaxT set to 4.27D-01
 The second derivative matrix:
                          R1
           R1           0.60938
 ITU=  1  1
     Eigenvalues ---    0.60938
 RFO step:  Lambda= 0.00000000D+00 EMin= 6.09383682D-01
 Quartic linear search produced a step of -0.00918.
 Variable       Old X    -DE/DX   Delta X   Delta X   Delta X     New X
                                 (Linear)    (Quad)   (Total)
    R1        1.74197   0.00003   0.00005   0.00000   0.00005   1.74202
         Item               Value     Threshold  Converged?
 Maximum Force            0.000031     0.000450     YES
 RMS     Force            0.000031     0.000300     YES
 Maximum Displacement     0.000050     0.001800     YES
 RMS     Displacement     0.000050     0.001200     YES
 Predicted change in Energy=-7.886905D-10
 Optimization completed.
    -- Stationary point found.
                       ----------------------------
                       !   Optimized Parameters   !
                       ! (Angstroms and Degrees)  !
 ----------------------                            ----------------------
 !      Name          Value   Derivative information (Atomic Units)     !
 ------------------------------------------------------------------------
 !       R1          0.9218   -DE/DX =    0.0                           !
 ------------------------------------------------------------------------
 GradGradGradGradGradGradGradGradGradGradGradGradGradGradGradGradGradGrad

 ---------------------------------------------------------------------------------------------------
                            Z-MATRIX (ANGSTROMS AND DEGREES)
   CD    Cent   Atom    N1       Length/X        N2       Alpha/Y        N3        Beta/Z          J
 ---------------------------------------------------------------------------------------------------
      1      1  F 
      2      2  H        1   0.921811(     1)
 ---------------------------------------------------------------------------------------------------
                         Z-Matrix orientation:                         
 ---------------------------------------------------------------------
 Center     Atomic      Atomic             Coordinates (Angstroms)
 Number     Number       Type             X           Y           Z
 ---------------------------------------------------------------------
      1          9           0        0.000000    0.000000    0.000000
      2          1           0        0.000000    0.000000    0.921811
 ---------------------------------------------------------------------
 Stoichiometry    FH
 Framework group  C*V[C*(HF)]
 Deg. of freedom     1
 Full point group                 C*V     NOp   4
 Largest Abelian subgroup         C2V     NOp   4
 Largest concise Abelian subgroup C1      NOp   1
                         Standard orientation:                         
 ---------------------------------------------------------------------
 Center     Atomic      Atomic             Coordinates (Angstroms)
 Number     Number       Type             X           Y           Z
 ---------------------------------------------------------------------
      1          9           0        0.000000    0.000000    0.092181
      2          1           0        0.000000    0.000000   -0.829630
 ---------------------------------------------------------------------
 Rotational constants (GHZ):           0.0000000         621.4361443         621.4361443

 **********************************************************************

            Population analysis using the SCF density.

 **********************************************************************

 Orbital symmetries:
       Occupied  (SG) (SG) (SG) (PI) (PI)
       Virtual   (SG) (SG) (PI) (PI) (SG) (PI) (PI) (SG) (SG) (SG)
                 (DLTA) (DLTA) (PI) (PI) (SG) (PI) (PI) (SG) (DLTA)
                 (DLTA) (PI) (PI) (SG) (PI) (PI) (SG) (SG) (SG)
                 (DLTA) (DLTA) (PI) (PI) (PHI) (PHI) (DLTA) (DLTA)
                 (SG) (PI) (PI) (SG) (DLTA) (DLTA) (PI) (PI) (PI)
                 (PI) (SG) (SG) (PI) (PI) (SG) (PHI) (PHI) (DLTA)
                 (DLTA) (PI) (PI) (SG) (DLTA) (DLTA) (PI) (PI)
                 (SG) (SG)
 The electronic state is 1-SG.
 Alpha  occ. eigenvalues --  -26.29952  -1.60112  -0.76679  -0.65005  -0.65005
 Alpha virt. eigenvalues --    0.03044   0.13868   0.20135   0.20135   0.20776
 Alpha virt. eigenvalues --    0.28535   0.28535   0.31068   0.42663   0.70900
 Alpha virt. eigenvalues --    0.75982   0.75982   0.82710   0.82710   0.94854
 Alpha virt. eigenvalues --    1.04140   1.04140   1.07026   1.08521   1.08521
 Alpha virt. eigenvalues --    1.14501   1.14501   1.14938   1.66688   1.66688
 Alpha virt. eigenvalues --    1.97980   2.38882   2.73750   2.80832   2.80832
 Alpha virt. eigenvalues --    2.90313   2.90313   2.93455   2.93455   3.15838
 Alpha virt. eigenvalues --    3.15838   3.15993   3.62317   3.62317   4.08493
 Alpha virt. eigenvalues --    4.16067   4.16067   4.30150   4.30150   4.76779
 Alpha virt. eigenvalues --    4.76779   5.05410   5.64640   6.06249   6.06249
 Alpha virt. eigenvalues --    7.53883   8.82990   8.82990   8.91895   8.91895
 Alpha virt. eigenvalues --    9.23493   9.23493   9.34350   9.35871   9.35871
 Alpha virt. eigenvalues --    9.54879   9.54879   9.87520  14.56564
          Condensed to atoms (all electrons):
               1          2
     1  F    9.203020   0.174932
     2  H    0.174932   0.447115
 Mulliken charges:
               1
     1  F   -0.377952
     2  H    0.377952
 Sum of Mulliken charges =   0.00000
 Mulliken charges with hydrogens summed into heavy atoms:
               1
     1  F    0.000000
 Electronic spatial extent (au):  <R**2>=             13.8296
 Charge=             -0.0000 electrons
 Dipole moment (field-independent basis, Debye):
    X=              0.0000    Y=              0.0000    Z=             -1.9348  Tot=              1.9348
 Quadrupole moment (field-independent basis, Debye-Ang):
   XX=             -5.7019   YY=             -5.7019   ZZ=             -3.5242
   XY=              0.0000   XZ=              0.0000   YZ=              0.0000
 Traceless Quadrupole moment (field-independent basis, Debye-Ang):
   XX=             -0.7259   YY=             -0.7259   ZZ=              1.4518
   XY=              0.0000   XZ=              0.0000   YZ=              0.0000
 Octapole moment (field-independent basis, Debye-Ang**2):
  XXX=              0.0000  YYY=              0.0000  ZZZ=             -1.9788  XYY=              0.0000
  XXY=              0.0000  XXZ=             -0.1417  XZZ=              0.0000  YZZ=              0.0000
  YYZ=             -0.1417  XYZ=              0.0000
 Hexadecapole moment (field-independent basis, Debye-Ang**3):
 XXXX=             -3.7877 YYYY=             -3.7877 ZZZZ=             -3.2136 XXXY=              0.0000
 XXXZ=              0.0000 YYYX=              0.0000 YYYZ=              0.0000 ZZZX=              0.0000
 ZZZY=              0.0000 XXYY=             -1.2626 XXZZ=             -1.4292 YYZZ=             -1.4292
 XXYZ=              0.0000 YYXZ=              0.0000 ZZXY=              0.0000
 N-N= 5.166563952356D+00 E-N=-2.504811444655D+02  KE= 9.996141832825D+01
 Symmetry A1   KE= 8.743296395829D+01
 Symmetry A2   KE=-3.976427940956D-52
 Symmetry B1   KE= 6.264227184976D+00
 Symmetry B2   KE= 6.264227184976D+00
 1\1\GINC-N2398\FOpt\RMP2-FC\Aug-CC-pVTZ\F1H1\GDS001\30-Mar-2023\1\\# m
 p2/aug-cc-pVTZ opt=(z-matrix) freq\\blah\\0,1\F\H,1,R1\\R1=0.92181089\
 \Version=ES64L-G16RevA.03\State=1-SG\HF=-100.0608349\MP2=-100.3408907\
 RMSD=7.221e-09\RMSF=1.790e-05\Dipole=0.,0.,0.7121022\PG=C*V [C*(H1F1)]
 \\@


 MANHOOD BEGINS BY TRYING TO SHAVE FACE,
 AND ENDS BY TRYING TO SAVE FACE.
 Job cpu time:       0 days  0 hours  4 minutes 40.2 seconds.
 Elapsed time:       0 days  0 hours  0 minutes 10.4 seconds.
 File lengths (MBytes):  RWF=     72 Int=      0 D2E=      0 Chk=      8 Scr=      8
 Normal termination of Gaussian 16 at Thu Mar 30 11:06:58 2023.
 Link1:  Proceeding to internal job step number  2.
 ----------------------------------------------------------------------
 #N Geom=AllCheck Guess=TCheck SCRF=Check GenChk RMP2(FC)/Aug-CC-pVTZ F
 req
 ----------------------------------------------------------------------
 1/10=4,29=7,30=1,38=1,40=1/1,3;
 2/12=2,40=1/2;
 3/5=16,6=1,7=10,11=1,14=-4,25=1,30=1,70=2,71=2,116=1,140=1/1,2,3;
 4/5=101/1;
 5/5=2,38=6,98=1/2;
 8/6=3,8=1,10=1,19=11,30=-1/1;
 9/15=3,16=-3/6;
 11/6=1,8=1,15=11,17=12,24=-1,27=1,28=-2,29=300,32=6,42=3/1,2,10;
 10/6=2,21=1/2;
 8/6=4,8=1,10=1,19=11,30=-1/11,4;
 10/5=1,20=4/2;
 11/12=2,14=11,16=1,17=2,28=-2,42=3/2,10,12;
 6/7=2,8=2,9=2,10=2/1;
 7/8=1,10=1,12=2,25=1,44=2/1,2,3,16;
 1/10=4,30=1/3;
 99//99;
 Structure from the checkpoint file:  "/gscratch/scrubbed/gds001/Gau-109434.chk"
 ----
 blah
 ----
 Charge =  0 Multiplicity = 1
 Z-Matrix found in chk file.
 F
 H,1,R1
      Variables:
 R1=0.92181089
 Recover connectivity data from disk.

 GradGradGradGradGradGradGradGradGradGradGradGradGradGradGradGradGradGrad
 Berny optimization.
 Initialization pass.
                       ----------------------------
                       !    Initial Parameters    !
                       ! (Angstroms and Degrees)  !
 ----------------------                            ----------------------
 !      Name          Value   Derivative information (Atomic Units)     !
 ------------------------------------------------------------------------
 !       R1          0.9218   calculate D2E/DX2 analytically            !
 ------------------------------------------------------------------------
 Trust Radius=3.00D-01 FncErr=1.00D-07 GrdErr=1.00D-07 EigMax=2.50D+02 EigMin=1.00D-04
 Number of steps in this run=      2 maximum allowed number of steps=      2.
 GradGradGradGradGradGradGradGradGradGradGradGradGradGradGradGradGradGrad

                          Input orientation:                          
 ---------------------------------------------------------------------
 Center     Atomic      Atomic             Coordinates (Angstroms)
 Number     Number       Type             X           Y           Z
 ---------------------------------------------------------------------
      1          9           0        0.000000    0.000000    0.000000
      2          1           0        0.000000    0.000000    0.921811
 ---------------------------------------------------------------------
 Stoichiometry    FH
 Framework group  C*V[C*(HF)]
 Deg. of freedom     1
 Full point group                 C*V     NOp   4
 Largest Abelian subgroup         C2V     NOp   4
 Largest concise Abelian subgroup C1      NOp   1
                         Standard orientation:                         
 ---------------------------------------------------------------------
 Center     Atomic      Atomic             Coordinates (Angstroms)
 Number     Number       Type             X           Y           Z
 ---------------------------------------------------------------------
      1          9           0        0.000000    0.000000    0.092181
      2          1           0        0.000000    0.000000   -0.829630
 ---------------------------------------------------------------------
 Rotational constants (GHZ):           0.0000000         621.4361443         621.4361443
 Standard basis: Aug-CC-pVTZ (5D, 7F)
 There are    37 symmetry adapted cartesian basis functions of A1  symmetry.
 There are     7 symmetry adapted cartesian basis functions of A2  symmetry.
 There are    18 symmetry adapted cartesian basis functions of B1  symmetry.
 There are    18 symmetry adapted cartesian basis functions of B2  symmetry.
 There are    30 symmetry adapted basis functions of A1  symmetry.
 There are     7 symmetry adapted basis functions of A2  symmetry.
 There are    16 symmetry adapted basis functions of B1  symmetry.
 There are    16 symmetry adapted basis functions of B2  symmetry.
    69 basis functions,    99 primitive gaussians,    80 cartesian basis functions
     5 alpha electrons        5 beta electrons
       nuclear repulsion energy         5.1665639524 Hartrees.
 NAtoms=    2 NActive=    2 NUniq=    2 SFac= 1.00D+00 NAtFMM=   60 NAOKFM=F Big=F
 Integral buffers will be    131072 words long.
 Raffenetti 1 integral format.
 Two-electron integral symmetry is turned on.
 One-electron integrals computed using PRISM.
 NBasis=    69 RedAO= T EigKep=  3.66D-04  NBF=    30     7    16    16
 NBsUse=    69 1.00D-06 EigRej= -1.00D+00 NBFU=    30     7    16    16
 Initial guess from the checkpoint file:  "/gscratch/scrubbed/gds001/Gau-109434.chk"
 B after Tr=     0.000000    0.000000    0.000000
         Rot=    1.000000    0.000000    0.000000    0.000000 Ang=   0.00 deg.
 Initial guess orbital symmetries:
       Occupied  (SG) (SG) (SG) (PI) (PI)
       Virtual   (SG) (SG) (PI) (PI) (SG) (PI) (PI) (SG) (SG) (SG)
                 (DLTA) (DLTA) (PI) (PI) (SG) (PI) (PI) (SG) (DLTA)
                 (DLTA) (PI) (PI) (SG) (PI) (PI) (SG) (SG) (SG)
                 (DLTA) (DLTA) (PI) (PI) (PHI) (PHI) (DLTA) (DLTA)
                 (SG) (PI) (PI) (SG) (DLTA) (DLTA) (PI) (PI) (PI)
                 (PI) (SG) (SG) (PI) (PI) (SG) (PHI) (PHI) (DLTA)
                 (DLTA) (PI) (PI) (SG) (DLTA) (DLTA) (PI) (PI)
                 (SG) (SG)
 Keep R1 ints in memory in symmetry-blocked form, NReq=18493064.
 Requested convergence on RMS density matrix=1.00D-08 within 128 cycles.
 Requested convergence on MAX density matrix=1.00D-06.
 Requested convergence on             energy=1.00D-06.
 No special actions if energy rises.
 SCF Done:  E(RHF) =  -100.060834934     A.U. after    1 cycles
            NFock=  1  Conv=0.79D-09     -V/T= 2.0010
 ExpMin= 2.53D-02 ExpMax= 1.95D+04 ExpMxC= 6.65D+02 IAcc=3 IRadAn=         5 AccDes= 0.00D+00
 HarFok:  IExCor=  205 AccDes= 0.00D+00 IRadAn=         5 IDoV=-2 UseB2=F ITyADJ=14
 ICtDFT= 12500011 ScaDFX=  1.000000  1.000000  1.000000  1.000000
 Range of M.O.s used for correlation:     2    69
 NBasis=    69 NAE=     5 NBE=     5 NFC=     1 NFV=     0
 NROrb=     68 NOA=     4 NOB=     4 NVA=    64 NVB=    64

 **** Warning!!: The largest alpha MO coefficient is  0.18558137D+02

 Disk-based method using ON**2 memory for  4 occupieds at a time.
 Permanent disk used for amplitudes=      122560 words.
 Estimated scratch disk usage=     4053398 words.
 Actual    scratch disk usage=     4053398 words.
 JobTyp=1 Pass  1:  I=   2 to   5 NPSUse= 32 ParTrn=T ParDer=T DoDerP=T.
 (rs|ai) integrals will be sorted in core.
 Spin components of T(2) and E(2):
     alpha-alpha T2 =       0.6955941683D-02 E2=     -0.3564144897D-01
     alpha-beta  T2 =       0.3820286329D-01 E2=     -0.2087728747D+00
     beta-beta   T2 =       0.6955941683D-02 E2=     -0.3564144897D-01
 ANorm=    0.1025726448D+01
 E2 =    -0.2800557726D+00 EUMP2 =    -0.10034089070632D+03
 G2DrvN: will do     3 centers at a time, making    1 passes.
 Calling FoFCou, ICntrl=  3107 FMM=F I1Cent=   0 AccDes= 0.00D+00.
 End of G2Drv F.D. properties file   721 does not exist.
 End of G2Drv F.D. properties file   722 does not exist.
 End of G2Drv F.D. properties file   788 does not exist.
          IDoAtm=11
          Differentiating once with respect to electric field.
                with respect to dipole field.
          Differentiating once with respect to nuclear coordinates.
 Keep R1 ints in memory in symmetry-blocked form, NReq=18493632.
          There are     9 degrees of freedom in the 1st order CPHF.  IDoFFX=6 NUNeed=     9.
      6 vectors produced by pass  0 Test12= 3.56D-15 1.11D-08 XBig12= 1.06D+00 5.17D-01.
 AX will form     6 AO Fock derivatives at one time.
      6 vectors produced by pass  1 Test12= 3.56D-15 1.11D-08 XBig12= 5.88D-02 9.48D-02.
      6 vectors produced by pass  2 Test12= 3.56D-15 1.11D-08 XBig12= 2.61D-03 1.69D-02.
      6 vectors produced by pass  3 Test12= 3.56D-15 1.11D-08 XBig12= 3.72D-05 2.10D-03.
      6 vectors produced by pass  4 Test12= 3.56D-15 1.11D-08 XBig12= 3.61D-07 2.33D-04.
      6 vectors produced by pass  5 Test12= 3.56D-15 1.11D-08 XBig12= 1.79D-09 1.12D-05.
      4 vectors produced by pass  6 Test12= 3.56D-15 1.11D-08 XBig12= 5.20D-12 7.99D-07.
      3 vectors produced by pass  7 Test12= 3.56D-15 1.11D-08 XBig12= 2.30D-14 5.18D-08.
 InvSVY:  IOpt=1 It=  1 EMax= 4.44D-16
 Solved reduced A of dimension    43 with     6 vectors.
 End of Minotr F.D. properties file   721 does not exist.
 End of Minotr F.D. properties file   722 does not exist.
 End of Minotr F.D. properties file   788 does not exist.
 MDV=  5502926848.
 Form MO integral derivatives with frozen-active canonical formalism.
 Discarding MO integrals.
 Reordered first order wavefunction length =       204800
 In DefCFB: NBatch=  1 ICI=  5 ICA= 64 LFMax= 64
            Large arrays: LIAPS=     7065600 LIARS=     9856000 words.
 Semi-Direct transformation.
 ModeAB=           2 MOrb=             5 LenV=    5502623200
 LASXX=       770935 LTotXX=      770935 LenRXX=      770935
 LTotAB=      804225 MaxLAS=     1117800 LenRXY=     1117800
 NonZer=     1541870 LenScr=     2621440 LnRSAI=           0
 LnScr1=           0 LExtra=           0 Total=      4510175
 MaxDsk=          -1 SrtSym=           F ITran=            4
 JobTyp=0 Pass  1:  I=   1 to   5.
 (rs|ai) integrals will be sorted in core.
 Spin components of T(2) and E(2):
     alpha-alpha T2 =       0.6955941683D-02 E2=     -0.3564144897D-01
     alpha-beta  T2 =       0.3820286329D-01 E2=     -0.2087728747D+00
     beta-beta   T2 =       0.6955941683D-02 E2=     -0.3564144897D-01
 ANorm=    0.1450596254D+01
 E2 =    -0.2800557726D+00 EUMP2 =    -0.10034089070632D+03
          IDoAtm=11
          Differentiating once with respect to electric field.
                with respect to dipole field.
          Differentiating once with respect to nuclear coordinates.
          There are     1 degrees of freedom in the 1st order CPHF.  IDoFFX=0 NUNeed=     1.
 LinEq1:  Iter=  0 NonCon=     1 RMS=5.55D-03 Max=5.07D-02 NDo=     1
 LinEq1:  Iter=  1 NonCon=     1 RMS=8.68D-04 Max=8.01D-03 NDo=     1
 LinEq1:  Iter=  2 NonCon=     1 RMS=3.11D-04 Max=2.07D-03 NDo=     1
 LinEq1:  Iter=  3 NonCon=     1 RMS=6.54D-05 Max=4.58D-04 NDo=     1
 LinEq1:  Iter=  4 NonCon=     1 RMS=8.91D-06 Max=5.07D-05 NDo=     1
 LinEq1:  Iter=  5 NonCon=     1 RMS=9.31D-07 Max=6.69D-06 NDo=     1
 LinEq1:  Iter=  6 NonCon=     1 RMS=7.62D-08 Max=3.78D-07 NDo=     1
 LinEq1:  Iter=  7 NonCon=     1 RMS=6.03D-09 Max=3.59D-08 NDo=     1
 LinEq1:  Iter=  8 NonCon=     1 RMS=4.74D-10 Max=2.99D-09 NDo=     1
 LinEq1:  Iter=  9 NonCon=     0 RMS=3.89D-11 Max=2.89D-10 NDo=     1
 Linear equations converged to 1.000D-10 1.000D-09 after     9 iterations.
 End of Minotr F.D. properties file   721 does not exist.
 End of Minotr F.D. properties file   722 does not exist.
 End of Minotr F.D. properties file   788 does not exist.
 Symmetrizing basis deriv contribution to polar:
 IMax=3 JMax=2 DiffMx= 0.00D+00
 G2DrvN: will do     3 centers at a time, making    1 passes.
 Calling FoFCou, ICntrl=  3107 FMM=F I1Cent=   0 AccDes= 0.00D+00.
 End of G2Drv F.D. properties file   721 does not exist.
 End of G2Drv F.D. properties file   722 does not exist.
 End of G2Drv F.D. properties file   788 does not exist.
 R2 and R3 integrals will be kept in memory, NReq=    12440840.
 DD1Dir will call FoFMem   1 times, MxPair=        30
 NAB=    15 NAA=     0 NBB=     0.
 Discarding MO integrals.

 **********************************************************************

            Population analysis using the SCF density.

 **********************************************************************

 Orbital symmetries:
       Occupied  (SG) (SG) (SG) (PI) (PI)
       Virtual   (SG) (SG) (PI) (PI) (SG) (PI) (PI) (SG) (SG) (SG)
                 (DLTA) (DLTA) (PI) (PI) (SG) (PI) (PI) (SG) (DLTA)
                 (DLTA) (PI) (PI) (SG) (PI) (PI) (SG) (SG) (SG)
                 (DLTA) (DLTA) (PI) (PI) (PHI) (PHI) (DLTA) (DLTA)
                 (SG) (PI) (PI) (SG) (DLTA) (DLTA) (PI) (PI) (PI)
                 (PI) (SG) (SG) (PI) (PI) (SG) (PHI) (PHI) (DLTA)
                 (DLTA) (PI) (PI) (SG) (DLTA) (DLTA) (PI) (PI)
                 (SG) (SG)
 The electronic state is 1-SG.
 Alpha  occ. eigenvalues --  -26.29952  -1.60112  -0.76679  -0.65005  -0.65005
 Alpha virt. eigenvalues --    0.03044   0.13868   0.20135   0.20135   0.20776
 Alpha virt. eigenvalues --    0.28535   0.28535   0.31068   0.42663   0.70900
 Alpha virt. eigenvalues --    0.75982   0.75982   0.82710   0.82710   0.94854
 Alpha virt. eigenvalues --    1.04140   1.04140   1.07026   1.08521   1.08521
 Alpha virt. eigenvalues --    1.14501   1.14501   1.14938   1.66688   1.66688
 Alpha virt. eigenvalues --    1.97980   2.38882   2.73750   2.80832   2.80832
 Alpha virt. eigenvalues --    2.90313   2.90313   2.93455   2.93455   3.15838
 Alpha virt. eigenvalues --    3.15838   3.15993   3.62317   3.62317   4.08493
 Alpha virt. eigenvalues --    4.16067   4.16067   4.30150   4.30150   4.76779
 Alpha virt. eigenvalues --    4.76779   5.05410   5.64640   6.06249   6.06249
 Alpha virt. eigenvalues --    7.53883   8.82990   8.82990   8.91895   8.91895
 Alpha virt. eigenvalues --    9.23493   9.23493   9.34350   9.35871   9.35871
 Alpha virt. eigenvalues --    9.54879   9.54879   9.87520  14.56564
          Condensed to atoms (all electrons):
               1          2
     1  F    9.203020   0.174933
     2  H    0.174933   0.447115
 Mulliken charges:
               1
     1  F   -0.377952
     2  H    0.377952
 Sum of Mulliken charges =  -0.00000
 Mulliken charges with hydrogens summed into heavy atoms:
               1
     1  F   -0.000000
 APT charges:
               1
     1  F   -0.387226
     2  H    0.387226
 Sum of APT charges =  -0.00000
 APT charges with hydrogens summed into heavy atoms:
               1
     1  F   -0.000000
 Electronic spatial extent (au):  <R**2>=             13.8296
 Charge=             -0.0000 electrons
 Dipole moment (field-independent basis, Debye):
    X=              0.0000    Y=              0.0000    Z=             -1.9348  Tot=              1.9348
 Quadrupole moment (field-independent basis, Debye-Ang):
   XX=             -5.7019   YY=             -5.7019   ZZ=             -3.5242
   XY=              0.0000   XZ=              0.0000   YZ=              0.0000
 Traceless Quadrupole moment (field-independent basis, Debye-Ang):
   XX=             -0.7259   YY=             -0.7259   ZZ=              1.4518
   XY=              0.0000   XZ=              0.0000   YZ=              0.0000
 Octapole moment (field-independent basis, Debye-Ang**2):
  XXX=              0.0000  YYY=              0.0000  ZZZ=             -1.9788  XYY=              0.0000
  XXY=              0.0000  XXZ=             -0.1417  XZZ=              0.0000  YZZ=              0.0000
  YYZ=             -0.1417  XYZ=              0.0000
 Hexadecapole moment (field-independent basis, Debye-Ang**3):
 XXXX=             -3.7877 YYYY=             -3.7877 ZZZZ=             -3.2136 XXXY=              0.0000
 XXXZ=              0.0000 YYYX=              0.0000 YYYZ=              0.0000 ZZZX=              0.0000
 ZZZY=              0.0000 XXYY=             -1.2626 XXZZ=             -1.4292 YYZZ=             -1.4292
 XXYZ=              0.0000 YYXZ=              0.0000 ZZXY=              0.0000
 N-N= 5.166563952356D+00 E-N=-2.504811445221D+02  KE= 9.996141835687D+01
 Symmetry A1   KE= 8.743296400500D+01
 Symmetry A2   KE=-1.930816195465D-52
 Symmetry B1   KE= 6.264227175936D+00
 Symmetry B2   KE= 6.264227175936D+00
  Exact polarizability:   4.962   0.000   4.962   0.000   0.000   6.378
 Approx polarizability:   3.517  -0.000   3.517  -0.000  -0.000   4.992
 Calling FoFJK, ICntrl=  10100127 FMM=F ISym2X=1 I1Cent= 0 IOpClX= 0 NMat=1 NMatS=1 NMatT=0.
 Full mass-weighted force constant matrix:
 Low frequencies ---  -22.1489  -22.1489   -0.0026    0.0006    0.0017 4123.2680
 Diagonal vibrational polarizability:
        0.0000000       0.0000000       0.1909064
 Harmonic frequencies (cm**-1), IR intensities (KM/Mole), Raman scattering
 activities (A**4/AMU), depolarization ratios for plane and unpolarized
 incident light, reduced masses (AMU), force constants (mDyne/A),
 and normal coordinates:
                      1
                     SG
 Frequencies --   4123.2680
 Red. masses --      1.0583
 Frc consts  --     10.6010
 IR Inten    --    120.6065
  Atom  AN      X      Y      Z
     1   9    -0.00  -0.00  -0.05
     2   1    -0.00  -0.00   1.00

 -------------------
 - Thermochemistry -
 -------------------
 Temperature   298.150 Kelvin.  Pressure   1.00000 Atm.
 Atom     1 has atomic number  9 and mass  18.99840
 Atom     2 has atomic number  1 and mass   1.00783
 Molecular mass:    20.00623 amu.
 Principal axes and moments of inertia in atomic units:
                           1         2         3
     Eigenvalues --     0.00000   2.90415   2.90415
           X            0.00000  -0.00000   1.00000
           Y            0.00000   1.00000   0.00000
           Z            1.00000   0.00000   0.00000
 This molecule is a prolate symmetric top.
 Rotational symmetry number  1.
 Rotational temperature (Kelvin)     29.82423
 Rotational constant (GHZ):         621.436144
 Zero-point vibrational energy      24662.6 (Joules/Mol)
                                    5.89451 (Kcal/Mol)
 Vibrational temperatures:   5932.46
          (Kelvin)
 
 Zero-point correction=                           0.009393 (Hartree/Particle)
 Thermal correction to Energy=                    0.011754
 Thermal correction to Enthalpy=                  0.012698
 Thermal correction to Gibbs Free Energy=        -0.007012
 Sum of electronic and zero-point Energies=           -100.331497
 Sum of electronic and thermal Energies=              -100.329137
 Sum of electronic and thermal Enthalpies=            -100.328193
 Sum of electronic and thermal Free Energies=         -100.347903
 
                     E (Thermal)             CV                S
                      KCal/Mol        Cal/Mol-Kelvin    Cal/Mol-Kelvin
 Total                    7.376              4.968             41.484
 Electronic               0.000              0.000              0.000
 Translational            0.889              2.981             34.922
 Rotational               0.592              1.987              6.562
 Vibrational              5.895              0.000              0.000
                       Q            Log10(Q)             Ln(Q)
 Total Bot       0.168021D+04          3.225363          7.426673
 Total V=0       0.351615D+08          7.546067         17.375462
 Vib (Bot)       0.477855D-04         -4.320704         -9.948789
 Vib (V=0)       0.100000D+01          0.000000          0.000000
 Electronic      0.100000D+01          0.000000          0.000000
 Translational   0.351724D+07          6.546202         15.073186
 Rotational      0.999690D+01          0.999866          2.302275
 ***** Axes restored to original set *****
 -------------------------------------------------------------------
 Center     Atomic                   Forces (Hartrees/Bohr)
 Number     Number              X              Y              Z
 -------------------------------------------------------------------
      1        9          -0.000000000   -0.000000000   -0.000031004
      2        1          -0.000000000   -0.000000000    0.000031004
 -------------------------------------------------------------------
 Cartesian Forces:  Max     0.000031004 RMS     0.000017900
 -----------------------------------------------------------------------------------------------
                       Internal Coordinate Forces (Hartree/Bohr or radian)
  Cent   Atom   N1       Length/X         N2         Alpha/Y        N3         Beta/Z          J
 -----------------------------------------------------------------------------------------------
      1  F 
      2  H        1   0.000031(     1)
 -----------------------------------------------------------------------------------------------
 Internal  Forces:  Max     0.000031004 RMS     0.000031004

 GradGradGradGradGradGradGradGradGradGradGradGradGradGradGradGradGradGrad
 Berny optimization.
 Search for a local minimum.
 Step number   1 out of a maximum of    2
 All quantities printed in internal units (Hartrees-Bohrs-Radians)
 Second derivative matrix not updated -- analytic derivatives used.
 The second derivative matrix:
                          R1
           R1           0.61576
 ITU=  0
     Eigenvalues ---    0.61576
 Angle between quadratic step and forces=   0.00 degrees.
 Linear search not attempted -- first point.
 Variable       Old X    -DE/DX   Delta X   Delta X   Delta X     New X
                                 (Linear)    (Quad)   (Total)
    R1        1.74197   0.00003   0.00000   0.00005   0.00005   1.74202
         Item               Value     Threshold  Converged?
 Maximum Force            0.000031     0.000450     YES
 RMS     Force            0.000031     0.000300     YES
 Maximum Displacement     0.000050     0.001800     YES
 RMS     Displacement     0.000050     0.001200     YES
 Predicted change in Energy=-7.805452D-10
 Optimization completed.
    -- Stationary point found.
                       ----------------------------
                       !   Optimized Parameters   !
                       ! (Angstroms and Degrees)  !
 ----------------------                            ----------------------
 !      Name          Value   Derivative information (Atomic Units)     !
 ------------------------------------------------------------------------
 !       R1          0.9218   -DE/DX =    0.0                           !
 ------------------------------------------------------------------------
 GradGradGradGradGradGradGradGradGradGradGradGradGradGradGradGradGradGrad


 ----------------------------------------------------------------------

 Electric dipole moment (input orientation):
 (Debye = 10**-18 statcoulomb cm , SI units = C m)
                  (au)            (Debye)         (10**-30 SI)
   Tot        0.712102D+00      0.180998D+01      0.603745D+01
   x          0.000000D+00      0.000000D+00      0.000000D+00
   y          0.000000D+00      0.000000D+00      0.000000D+00
   z          0.712102D+00      0.180998D+01      0.603745D+01

 Dipole polarizability, Alpha (input orientation).
 (esu units = cm**3 , SI units = C**2 m**2 J**-1)
 Alpha(0;0):
               (au)            (10**-24 esu)      (10**-40 SI)
   iso        0.543387D+01      0.805216D+00      0.895924D+00
   aniso      0.141686D+01      0.209957D+00      0.233608D+00
   xx         0.496158D+01      0.735231D+00      0.818054D+00
   yx         0.000000D+00      0.000000D+00      0.000000D+00
   yy         0.496158D+01      0.735231D+00      0.818054D+00
   zx         0.000000D+00      0.000000D+00      0.000000D+00
   zy         0.000000D+00      0.000000D+00      0.000000D+00
   zz         0.637844D+01      0.945187D+00      0.105166D+01

 ----------------------------------------------------------------------

 Dipole orientation:
     9          0.00000000          0.00000000          0.00000000
     1          0.00000000          0.00000000          1.74197011

 Electric dipole moment (dipole orientation):
 (Debye = 10**-18 statcoulomb cm , SI units = C m)
                  (au)            (Debye)         (10**-30 SI)
   Tot        0.712102D+00      0.180998D+01      0.603745D+01
   x          0.000000D+00      0.000000D+00      0.000000D+00
   y          0.000000D+00      0.000000D+00      0.000000D+00
   z          0.712102D+00      0.180998D+01      0.603745D+01

 Dipole polarizability, Alpha (dipole orientation).
 (esu units = cm**3 , SI units = C**2 m**2 J**-1)
 Alpha(0;0):
               (au)            (10**-24 esu)      (10**-40 SI)
   iso        0.543387D+01      0.805216D+00      0.895924D+00
   aniso      0.141686D+01      0.209957D+00      0.233608D+00
   xx         0.496158D+01      0.735231D+00      0.818054D+00
   yx         0.000000D+00      0.000000D+00      0.000000D+00
   yy         0.496158D+01      0.735231D+00      0.818054D+00
   zx         0.000000D+00      0.000000D+00      0.000000D+00
   zy         0.000000D+00      0.000000D+00      0.000000D+00
   zz         0.637844D+01      0.945187D+00      0.105166D+01

 ----------------------------------------------------------------------
 1\1\GINC-N2398\Freq\RMP2-FC\Aug-CC-pVTZ\F1H1\GDS001\30-Mar-2023\1\\#N 
 Geom=AllCheck Guess=TCheck SCRF=Check GenChk RMP2(FC)/Aug-CC-pVTZ Freq
 \\blah\\0,1\F\H,1,R1\\R1=0.92181089\\Version=ES64L-G16RevA.03\State=1-
 SG\HF=-100.0608349\MP2=-100.3408907\RMSD=7.888e-10\RMSF=1.790e-05\Zero
 Point=0.0093935\Thermal=0.011754\Dipole=0.,0.,0.7121022\DipoleDeriv=-0
 .4087913,0.,0.,0.,-0.4087913,0.,0.,0.,-0.3440949,0.4087913,0.,0.,0.,0.
 4087913,0.,0.,0.,0.3440949\Polar=4.961582,0.,4.961582,0.,0.,6.3784398\
 PG=C*V [C*(H1F1)]\NImag=0\\-0.00001777,0.,-0.00001777,0.,0.,0.61576017
 ,0.00001777,0.,0.,-0.00001777,0.,0.00001777,0.,0.,-0.00001777,0.,0.,-0
 .61576017,0.,0.,0.61576017\\0.,0.,0.00003100,0.,0.,-0.00003100\\\@


 Experience is what you get when you don't get what you want.
 -- Dan Stanford
 Job cpu time:       0 days  0 hours  6 minutes 26.7 seconds.
 Elapsed time:       0 days  0 hours  0 minutes 12.9 seconds.
 File lengths (MBytes):  RWF=    204 Int=      0 D2E=      0 Chk=      8 Scr=      8
 Normal termination of Gaussian 16 at Thu Mar 30 11:07:11 2023.
