 Entering Gaussian System, Link 0=g16
 Input=h2o_mp2_avtz_scan.gjf
 Output=h2o_mp2_avtz_scan.log
 Initial command:
 /sw/contrib/gaussian/g16/A03/g16/l1.exe "/gscratch/scrubbed/gds001/Gau-12141.inp" -scrdir="/gscratch/scrubbed/gds001/"
 Entering Link 1 = /sw/contrib/gaussian/g16/A03/g16/l1.exe PID=     12142.
  
 Copyright (c) 1988,1990,1992,1993,1995,1998,2003,2009,2016,
            Gaussian, Inc.  All Rights Reserved.
  
 This is part of the Gaussian(R) 16 program.  It is based on
 the Gaussian(R) 09 system (copyright 2009, Gaussian, Inc.),
 the Gaussian(R) 03 system (copyright 2003, Gaussian, Inc.),
 the Gaussian(R) 98 system (copyright 1998, Gaussian, Inc.),
 the Gaussian(R) 94 system (copyright 1995, Gaussian, Inc.),
 the Gaussian 92(TM) system (copyright 1992, Gaussian, Inc.),
 the Gaussian 90(TM) system (copyright 1990, Gaussian, Inc.),
 the Gaussian 88(TM) system (copyright 1988, Gaussian, Inc.),
 the Gaussian 86(TM) system (copyright 1986, Carnegie Mellon
 University), and the Gaussian 82(TM) system (copyright 1983,
 Carnegie Mellon University). Gaussian is a federally registered
 trademark of Gaussian, Inc.
  
 This software contains proprietary and confidential information,
 including trade secrets, belonging to Gaussian, Inc.
  
 This software is provided under written license and may be
 used, copied, transmitted, or stored only in accord with that
 written license.
  
 The following legend is applicable only to US Government
 contracts under FAR:
  
                    RESTRICTED RIGHTS LEGEND
  
 Use, reproduction and disclosure by the US Government is
 subject to restrictions as set forth in subparagraphs (a)
 and (c) of the Commercial Computer Software - Restricted
 Rights clause in FAR 52.227-19.
  
 Gaussian, Inc.
 340 Quinnipiac St., Bldg. 40, Wallingford CT 06492
  
  
 ---------------------------------------------------------------
 Warning -- This program may not be used in any manner that
 competes with the business of Gaussian, Inc. or will provide
 assistance to any competitor of Gaussian, Inc.  The licensee
 of this program is prohibited from giving any competitor of
 Gaussian, Inc. access to this program.  By using this program,
 the user acknowledges that Gaussian, Inc. is engaged in the
 business of creating and licensing software in the field of
 computational chemistry and represents and warrants to the
 licensee that it is not a competitor of Gaussian, Inc. and that
 it will not use this program in any manner prohibited above.
 ---------------------------------------------------------------
  

 Cite this work as:
 Gaussian 16, Revision A.03,
 M. J. Frisch, G. W. Trucks, H. B. Schlegel, G. E. Scuseria, 
 M. A. Robb, J. R. Cheeseman, G. Scalmani, V. Barone, 
 G. A. Petersson, H. Nakatsuji, X. Li, M. Caricato, A. V. Marenich, 
 J. Bloino, B. G. Janesko, R. Gomperts, B. Mennucci, H. P. Hratchian, 
 J. V. Ortiz, A. F. Izmaylov, J. L. Sonnenberg, D. Williams-Young, 
 F. Ding, F. Lipparini, F. Egidi, J. Goings, B. Peng, A. Petrone, 
 T. Henderson, D. Ranasinghe, V. G. Zakrzewski, J. Gao, N. Rega, 
 G. Zheng, W. Liang, M. Hada, M. Ehara, K. Toyota, R. Fukuda, 
 J. Hasegawa, M. Ishida, T. Nakajima, Y. Honda, O. Kitao, H. Nakai, 
 T. Vreven, K. Throssell, J. A. Montgomery, Jr., J. E. Peralta, 
 F. Ogliaro, M. J. Bearpark, J. J. Heyd, E. N. Brothers, K. N. Kudin, 
 V. N. Staroverov, T. A. Keith, R. Kobayashi, J. Normand, 
 K. Raghavachari, A. P. Rendell, J. C. Burant, S. S. Iyengar, 
 J. Tomasi, M. Cossi, J. M. Millam, M. Klene, C. Adamo, R. Cammi, 
 J. W. Ochterski, R. L. Martin, K. Morokuma, O. Farkas, 
 J. B. Foresman, and D. J. Fox, Gaussian, Inc., Wallingford CT, 2016.
 
 ******************************************
 Gaussian 16:  ES64L-G16RevA.03 25-Dec-2016
                 9-Mar-2024 
 ******************************************
 %nprocshared=28
 Will use up to   28 processors via shared memory.
 %mem=41GB
 ----------------------------
 # mp2/aug-cc-pVTZ Pop=ChelpG
 ----------------------------
 1/38=1,172=1/1;
 2/12=2,17=6,18=5,40=1/2;
 3/5=16,6=1,7=10,11=9,25=1,30=1/1,2,3;
 4//1;
 5/5=2,38=5/2;
 8/10=1/1;
 9/16=-3/6;
 6/7=2,8=2,9=2,10=2,15=8,20=3/1,2;
 99/5=1,9=1/99;
 -----------------
 Title: R = 0.8613
 -----------------
 Symbolic Z-matrix:
 Charge =  0 Multiplicity = 1
 O
 H                    1    R1
 H                    1    R2       2    A1
       Variables:
  R2                    0.9613                   
  A1                  104.1065                   
  R1                    0.8613                   
 
                          Input orientation:                          
 ---------------------------------------------------------------------
 Center     Atomic      Atomic             Coordinates (Angstroms)
 Number     Number       Type             X           Y           Z
 ---------------------------------------------------------------------
      1          8           0        0.000000    0.000000    0.000000
      2          1           0        0.000000    0.000000    0.861300
      3          1           0        0.932311    0.000000   -0.234293
 ---------------------------------------------------------------------
                    Distance matrix (angstroms):
                    1          2          3
     1  O    0.000000
     2  H    0.861300   0.000000
     3  H    0.961300   1.438586   0.000000
 Stoichiometry    H2O
 Framework group  CS[SG(H2O)]
 Deg. of freedom     3
 Full point group                 CS      NOp   2
 Largest Abelian subgroup         CS      NOp   2
 Largest concise Abelian subgroup C1      NOp   1
                         Standard orientation:                         
 ---------------------------------------------------------------------
 Center     Atomic      Atomic             Coordinates (Angstroms)
 Number     Number       Type             X           Y           Z
 ---------------------------------------------------------------------
      1          8           0        0.000000    0.112354    0.000000
      2          1           0        0.714705   -0.368306    0.000000
      3          1           0       -0.714705   -0.530526   -0.000000
 ---------------------------------------------------------------------
 Rotational constants (GHZ):         919.3238117         477.6503811         314.3332005
 Standard basis: Aug-CC-pVTZ (5D, 7F)
 There are    73 symmetry adapted cartesian basis functions of A'  symmetry.
 There are    32 symmetry adapted cartesian basis functions of A"  symmetry.
 There are    62 symmetry adapted basis functions of A'  symmetry.
 There are    30 symmetry adapted basis functions of A"  symmetry.
    92 basis functions,   126 primitive gaussians,   105 cartesian basis functions
     5 alpha electrons        5 beta electrons
       nuclear repulsion energy         9.6868408799 Hartrees.
 NAtoms=    3 NActive=    3 NUniq=    3 SFac= 1.00D+00 NAtFMM=   60 NAOKFM=F Big=F
 Integral buffers will be    131072 words long.
 Raffenetti 1 integral format.
 Two-electron integral symmetry is turned on.
 One-electron integrals computed using PRISM.
 NBasis=    92 RedAO= T EigKep=  3.06D-04  NBF=    62    30
 NBsUse=    92 1.00D-06 EigRej= -1.00D+00 NBFU=    62    30
 ExpMin= 2.53D-02 ExpMax= 1.53D+04 ExpMxC= 5.22D+02 IAcc=3 IRadAn=         5 AccDes= 0.00D+00
 Harris functional with IExCor=  205 and IRadAn=       5 diagonalized for initial guess.
 HarFok:  IExCor=  205 AccDes= 0.00D+00 IRadAn=         5 IDoV= 1 UseB2=F ITyADJ=14
 ICtDFT=  3500011 ScaDFX=  1.000000  1.000000  1.000000  1.000000
 FoFCou: FMM=F IPFlag=           0 FMFlag=      100000 FMFlg1=           0
         NFxFlg=           0 DoJE=T BraDBF=F KetDBF=T FulRan=T
         wScrn=  0.000000 ICntrl=       500 IOpCl=  0 I1Cent=   200000004 NGrid=           0
         NMat0=    1 NMatS0=      1 NMatT0=    0 NMatD0=    1 NMtDS0=    0 NMtDT0=    0
 Petite list used in FoFCou.
 Initial guess orbital symmetries:
       Occupied  (A') (A') (A') (A') (A")
       Virtual   (A') (A') (A') (A") (A') (A') (A') (A') (A") (A')
                 (A") (A') (A') (A') (A') (A') (A') (A") (A") (A')
                 (A") (A') (A") (A') (A") (A') (A') (A') (A") (A')
                 (A') (A') (A") (A') (A") (A') (A") (A') (A') (A')
                 (A') (A") (A') (A") (A') (A') (A") (A') (A") (A')
                 (A') (A') (A") (A') (A') (A") (A") (A') (A") (A')
                 (A') (A") (A") (A') (A') (A') (A') (A") (A') (A')
                 (A") (A') (A') (A') (A") (A') (A") (A") (A') (A")
                 (A') (A") (A') (A') (A') (A') (A')
 The electronic state of the initial guess is 1-A'.
 Keep R1 ints in memory in symmetry-blocked form, NReq=22811748.
 Requested convergence on RMS density matrix=1.00D-08 within 128 cycles.
 Requested convergence on MAX density matrix=1.00D-06.
 Requested convergence on             energy=1.00D-06.
 No special actions if energy rises.
 SCF Done:  E(RHF) =  -76.0519355607     A.U. after   10 cycles
            NFock= 10  Conv=0.25D-08     -V/T= 1.9983
 ExpMin= 2.53D-02 ExpMax= 1.53D+04 ExpMxC= 5.22D+02 IAcc=3 IRadAn=         5 AccDes= 0.00D+00
 HarFok:  IExCor=  205 AccDes= 0.00D+00 IRadAn=         5 IDoV=-2 UseB2=F ITyADJ=14
 ICtDFT= 12500011 ScaDFX=  1.000000  1.000000  1.000000  1.000000
 Range of M.O.s used for correlation:     2    92
 NBasis=    92 NAE=     5 NBE=     5 NFC=     1 NFV=     0
 NROrb=     91 NOA=     4 NOB=     4 NVA=    87 NVB=    87

 **** Warning!!: The largest alpha MO coefficient is  0.17406639D+02

 Fully in-core method, ICMem=    40034190.
 JobTyp=1 Pass  1 fully in-core, NPsUse= 28.
 Spin components of T(2) and E(2):
     alpha-alpha T2 =       0.7742151057D-02 E2=     -0.3213862705D-01
     alpha-beta  T2 =       0.4479614502D-01 E2=     -0.2004861750D+00
     beta-beta   T2 =       0.7742151057D-02 E2=     -0.3213862705D-01
 ANorm=    0.1029699202D+01
 E2 =    -0.2647634291D+00 EUMP2 =    -0.76316698989775D+02

 **********************************************************************

            Population analysis using the SCF density.

 **********************************************************************

 Orbital symmetries:
       Occupied  (A') (A') (A') (A') (A")
       Virtual   (A') (A') (A') (A") (A') (A') (A') (A') (A") (A")
                 (A') (A') (A') (A') (A') (A') (A') (A") (A") (A')
                 (A") (A') (A") (A') (A") (A') (A') (A') (A") (A')
                 (A') (A") (A') (A') (A") (A') (A") (A') (A') (A')
                 (A') (A") (A') (A") (A') (A') (A") (A') (A') (A")
                 (A') (A') (A") (A') (A') (A") (A") (A') (A") (A')
                 (A') (A") (A") (A') (A') (A') (A') (A") (A') (A')
                 (A") (A') (A') (A') (A") (A') (A") (A") (A') (A")
                 (A') (A") (A') (A') (A') (A') (A')
 The electronic state is 1-A'.
 Alpha  occ. eigenvalues --  -20.55831  -1.38187  -0.74359  -0.59379  -0.51477
 Alpha virt. eigenvalues --    0.02984   0.04791   0.13570   0.15602   0.17559
 Alpha virt. eigenvalues --    0.18315   0.23110   0.24763   0.26594   0.30309
 Alpha virt. eigenvalues --    0.31176   0.36799   0.44305   0.47774   0.60350
 Alpha virt. eigenvalues --    0.66518   0.71073   0.72372   0.73050   0.84425
 Alpha virt. eigenvalues --    0.85207   0.88236   0.91258   0.92090   0.92790
 Alpha virt. eigenvalues --    0.93813   0.96628   1.02739   1.08616   1.08957
 Alpha virt. eigenvalues --    1.12029   1.18794   1.19315   1.25186   1.52057
 Alpha virt. eigenvalues --    1.52759   1.62182   1.77950   1.86237   2.01162
 Alpha virt. eigenvalues --    2.18601   2.26728   2.31517   2.33295   2.41803
 Alpha virt. eigenvalues --    2.43151   2.43254   2.54686   2.66019   2.68049
 Alpha virt. eigenvalues --    2.80939   2.84726   2.90128   3.69657   3.82664
 Alpha virt. eigenvalues --    4.05833   4.15334   4.16959   4.31250   4.34666
 Alpha virt. eigenvalues --    4.37992   4.40410   4.46620   4.55305   4.78110
 Alpha virt. eigenvalues --    4.94894   5.18435   5.24393   5.33547   5.64508
 Alpha virt. eigenvalues --    5.70779   5.78042   6.28394   6.52568   6.73367
 Alpha virt. eigenvalues --    7.03092   7.12728   7.26136   7.30402   7.32098
 Alpha virt. eigenvalues --    7.45246   7.60909   7.76907   7.92436   8.28985
 Alpha virt. eigenvalues --    9.01973  17.50122
          Condensed to atoms (all electrons):
               1          2          3
     1  O    7.777575   0.283980   0.288822
     2  H    0.283980   0.598743  -0.001009
     3  H    0.288822  -0.001009   0.480095
 Mulliken charges:
               1
     1  O   -0.350377
     2  H    0.118285
     3  H    0.232092
 Sum of Mulliken charges =  -0.00000
 Mulliken charges with hydrogens summed into heavy atoms:
               1
     1  O   -0.000000
 Electronic spatial extent (au):  <R**2>=             18.8781
 Charge=             -0.0000 electrons
 Dipole moment (field-independent basis, Debye):
    X=              0.0460    Y=             -1.9527    Z=             -0.0000  Tot=              1.9532
 Quadrupole moment (field-independent basis, Debye-Ang):
   XX=             -4.3818   YY=             -6.1679   ZZ=             -7.4466
   XY=              0.2609   XZ=              0.0000   YZ=             -0.0000
 Traceless Quadrupole moment (field-independent basis, Debye-Ang):
   XX=              1.6170   YY=             -0.1691   ZZ=             -1.4478
   XY=              0.2609   XZ=              0.0000   YZ=             -0.0000
 Octapole moment (field-independent basis, Debye-Ang**2):
  XXX=              0.1408  YYY=             -1.2137  ZZZ=             -0.0000  XYY=             -0.1744
  XXY=             -1.2561  XXZ=             -0.0000  XZZ=              0.0525  YZZ=             -0.2772
  YYZ=             -0.0000  XYZ=             -0.0000
 Hexadecapole moment (field-independent basis, Debye-Ang**3):
 XXXX=             -5.6651 YYYY=             -6.9047 ZZZZ=             -6.5702 XXXY=             -0.0133
 XXXZ=             -0.0000 YYYX=              0.0096 YYYZ=             -0.0000 ZZZX=             -0.0000
 ZZZY=             -0.0000 XXYY=             -1.7910 XXZZ=             -2.3056 YYZZ=             -2.2958
 XXYZ=             -0.0000 YYXZ=             -0.0000 ZZXY=             -0.0627
 N-N= 9.686840879938D+00 E-N=-2.000730262641D+02  KE= 7.618012834253D+01
 Symmetry A'   KE= 7.171502926127D+01
 Symmetry A"   KE= 4.465099081258D+00
 Breneman (CHELPG) radii used.
 Generate Potential Derived Charges using the Breneman model, NDens= 1.
 Grid spacing= 0.300 Box extension= 2.800
 NStep X,Y,Z=   25     22     20   Total possible points=       11000
 Number of Points to Fit=    3920

 **********************************************************************

            Electrostatic Properties Using The SCF Density

 **********************************************************************

       Atomic Center    1 is at   0.000000  0.112354  0.000000
       Atomic Center    2 is at   0.714705 -0.368306  0.000000
       Atomic Center    3 is at  -0.714705 -0.530526 -0.000000
    3920 points will be used for fitting atomic charges
 Fitting point charges to electrostatic potential
 Charges from ESP fit, RMS=   0.00355 RRMS=   0.16976:
 ESP charges:
               1
     1  O   -0.742666
     2  H    0.378478
     3  H    0.364189
 Sum of ESP charges =   0.00000
 ESP charges with hydrogens summed into heavy atoms:
               1
     1  O    0.000000
 Charge=   0.00000 Dipole=     0.0491    -1.9984     0.0000 Tot=     1.9990
 -----------------------------------------------------------------

              Electrostatic Properties (Atomic Units)

 -----------------------------------------------------------------
    Center     Electric         -------- Electric Field --------
               Potential          X             Y             Z
 -----------------------------------------------------------------
    1 Atom    -22.335796
    2 Atom     -1.014436
    3 Atom     -0.998546
 -----------------------------------------------------------------
 1\1\GINC-N2206\SP\RMP2-FC\Aug-CC-pVTZ\H2O1\GDS001\09-Mar-2024\0\\# mp2
 /aug-cc-pVTZ Pop=ChelpG\\Title: R = 0.8613\\0,1\O\H,1,0.8613\H,1,0.961
 3,2,104.1065\\Version=ES64L-G16RevA.03\State=1-A'\HF=-76.0519356\MP2=-
 76.316699\RMSD=2.473e-09\PG=CS [SG(H2O1)]\\@


 LORD, MAN... WERE YE BUT WHYLES WHERE I AM, 
 THE GENTILES YE WAD NE'ER ENVY 'EM.        
 IT'S TRUE, THEY NEEDNA STARVE OR SWEAT,     
 THRO' WINTER'S CAULD OR SIMMER'S HEAT...  
 THEY'VE NAE SAIR WARK TO CRAZE THEIR BANES, 
 AND FILL AULD AGE WITH GRIPS AN' GRANES...  
                                             
 BUT HUMAN BODIES ARE SIC FOOLS              
 FOR A' THEIR COLLEGES AND SCHOOLS,           
 THAT WHEN NAE REAL ILLS PERPLEX THEM,       
 THEY MAK ENOW THEMSELVES TO VEX THEM,       
 AN' AYE THE LESS THEY HAE TO STURT THEM,    
 IN LIKE PROPORTION LESS WILL HURT THEM....  
                                             
                (ROBERT BURNS 'THE TWA DOGS')
 Job cpu time:       0 days  0 hours  1 minutes  9.8 seconds.
 Elapsed time:       0 days  0 hours  0 minutes  3.3 seconds.
 File lengths (MBytes):  RWF=     72 Int=      0 D2E=      0 Chk=      8 Scr=      8
 Normal termination of Gaussian 16 at Sat Mar  9 10:58:01 2024.
 Initial command:
 /sw/contrib/gaussian/g16/A03/g16/l1.exe "/gscratch/scrubbed/gds001/Gau-12141.inp" -scrdir="/gscratch/scrubbed/gds001/"
 Entering Link 1 = /sw/contrib/gaussian/g16/A03/g16/l1.exe PID=     12508.
  
 Copyright (c) 1988,1990,1992,1993,1995,1998,2003,2009,2016,
            Gaussian, Inc.  All Rights Reserved.
  
 This is part of the Gaussian(R) 16 program.  It is based on
 the Gaussian(R) 09 system (copyright 2009, Gaussian, Inc.),
 the Gaussian(R) 03 system (copyright 2003, Gaussian, Inc.),
 the Gaussian(R) 98 system (copyright 1998, Gaussian, Inc.),
 the Gaussian(R) 94 system (copyright 1995, Gaussian, Inc.),
 the Gaussian 92(TM) system (copyright 1992, Gaussian, Inc.),
 the Gaussian 90(TM) system (copyright 1990, Gaussian, Inc.),
 the Gaussian 88(TM) system (copyright 1988, Gaussian, Inc.),
 the Gaussian 86(TM) system (copyright 1986, Carnegie Mellon
 University), and the Gaussian 82(TM) system (copyright 1983,
 Carnegie Mellon University). Gaussian is a federally registered
 trademark of Gaussian, Inc.
  
 This software contains proprietary and confidential information,
 including trade secrets, belonging to Gaussian, Inc.
  
 This software is provided under written license and may be
 used, copied, transmitted, or stored only in accord with that
 written license.
  
 The following legend is applicable only to US Government
 contracts under FAR:
  
                    RESTRICTED RIGHTS LEGEND
  
 Use, reproduction and disclosure by the US Government is
 subject to restrictions as set forth in subparagraphs (a)
 and (c) of the Commercial Computer Software - Restricted
 Rights clause in FAR 52.227-19.
  
 Gaussian, Inc.
 340 Quinnipiac St., Bldg. 40, Wallingford CT 06492
  
  
 ---------------------------------------------------------------
 Warning -- This program may not be used in any manner that
 competes with the business of Gaussian, Inc. or will provide
 assistance to any competitor of Gaussian, Inc.  The licensee
 of this program is prohibited from giving any competitor of
 Gaussian, Inc. access to this program.  By using this program,
 the user acknowledges that Gaussian, Inc. is engaged in the
 business of creating and licensing software in the field of
 computational chemistry and represents and warrants to the
 licensee that it is not a competitor of Gaussian, Inc. and that
 it will not use this program in any manner prohibited above.
 ---------------------------------------------------------------
  

 Cite this work as:
 Gaussian 16, Revision A.03,
 M. J. Frisch, G. W. Trucks, H. B. Schlegel, G. E. Scuseria, 
 M. A. Robb, J. R. Cheeseman, G. Scalmani, V. Barone, 
 G. A. Petersson, H. Nakatsuji, X. Li, M. Caricato, A. V. Marenich, 
 J. Bloino, B. G. Janesko, R. Gomperts, B. Mennucci, H. P. Hratchian, 
 J. V. Ortiz, A. F. Izmaylov, J. L. Sonnenberg, D. Williams-Young, 
 F. Ding, F. Lipparini, F. Egidi, J. Goings, B. Peng, A. Petrone, 
 T. Henderson, D. Ranasinghe, V. G. Zakrzewski, J. Gao, N. Rega, 
 G. Zheng, W. Liang, M. Hada, M. Ehara, K. Toyota, R. Fukuda, 
 J. Hasegawa, M. Ishida, T. Nakajima, Y. Honda, O. Kitao, H. Nakai, 
 T. Vreven, K. Throssell, J. A. Montgomery, Jr., J. E. Peralta, 
 F. Ogliaro, M. J. Bearpark, J. J. Heyd, E. N. Brothers, K. N. Kudin, 
 V. N. Staroverov, T. A. Keith, R. Kobayashi, J. Normand, 
 K. Raghavachari, A. P. Rendell, J. C. Burant, S. S. Iyengar, 
 J. Tomasi, M. Cossi, J. M. Millam, M. Klene, C. Adamo, R. Cammi, 
 J. W. Ochterski, R. L. Martin, K. Morokuma, O. Farkas, 
 J. B. Foresman, and D. J. Fox, Gaussian, Inc., Wallingford CT, 2016.
 
 ******************************************
 Gaussian 16:  ES64L-G16RevA.03 25-Dec-2016
                 9-Mar-2024 
 ******************************************
 %nprocshared=28
 Will use up to   28 processors via shared memory.
 %mem=41GB
 ----------------------------
 # mp2/aug-cc-pVTZ Pop=ChelpG
 ----------------------------
 1/38=1,172=1/1;
 2/12=2,17=6,18=5,40=1/2;
 3/5=16,6=1,7=10,11=9,25=1,30=1/1,2,3;
 4//1;
 5/5=2,38=5/2;
 8/10=1/1;
 9/16=-3/6;
 6/7=2,8=2,9=2,10=2,15=8,20=3/1,2;
 99/5=1,9=1/99;
 -----------------
 Title: R = 0.8713
 -----------------
 Symbolic Z-matrix:
 Charge =  0 Multiplicity = 1
 O
 H                    1    R1
 H                    1    R2       2    A1
       Variables:
  R2                    0.9613                   
  A1                  104.1065                   
  R1                    0.8713                   
 
                          Input orientation:                          
 ---------------------------------------------------------------------
 Center     Atomic      Atomic             Coordinates (Angstroms)
 Number     Number       Type             X           Y           Z
 ---------------------------------------------------------------------
      1          8           0        0.000000    0.000000    0.000000
      2          1           0        0.000000    0.000000    0.871300
      3          1           0        0.932311    0.000000   -0.234293
 ---------------------------------------------------------------------
                    Distance matrix (angstroms):
                    1          2          3
     1  O    0.000000
     2  H    0.871300   0.000000
     3  H    0.961300   1.446216   0.000000
 Stoichiometry    H2O
 Framework group  CS[SG(H2O)]
 Deg. of freedom     3
 Full point group                 CS      NOp   2
 Largest Abelian subgroup         CS      NOp   2
 Largest concise Abelian subgroup C1      NOp   1
                         Standard orientation:                         
 ---------------------------------------------------------------------
 Center     Atomic      Atomic             Coordinates (Angstroms)
 Number     Number       Type             X           Y           Z
 ---------------------------------------------------------------------
      1          8           0        0.000000    0.112915    0.000000
      2          1           0        0.719410   -0.378626    0.000000
      3          1           0       -0.719410   -0.524695   -0.000000
 ---------------------------------------------------------------------
 Rotational constants (GHZ):         905.3688609         473.9434774         311.0924584
 Standard basis: Aug-CC-pVTZ (5D, 7F)
 There are    73 symmetry adapted cartesian basis functions of A'  symmetry.
 There are    32 symmetry adapted cartesian basis functions of A"  symmetry.
 There are    62 symmetry adapted basis functions of A'  symmetry.
 There are    30 symmetry adapted basis functions of A"  symmetry.
    92 basis functions,   126 primitive gaussians,   105 cartesian basis functions
     5 alpha electrons        5 beta electrons
       nuclear repulsion energy         9.6284884439 Hartrees.
 NAtoms=    3 NActive=    3 NUniq=    3 SFac= 1.00D+00 NAtFMM=   60 NAOKFM=F Big=F
 Integral buffers will be    131072 words long.
 Raffenetti 1 integral format.
 Two-electron integral symmetry is turned on.
 One-electron integrals computed using PRISM.
 NBasis=    92 RedAO= T EigKep=  3.14D-04  NBF=    62    30
 NBsUse=    92 1.00D-06 EigRej= -1.00D+00 NBFU=    62    30
 ExpMin= 2.53D-02 ExpMax= 1.53D+04 ExpMxC= 5.22D+02 IAcc=3 IRadAn=         5 AccDes= 0.00D+00
 Harris functional with IExCor=  205 and IRadAn=       5 diagonalized for initial guess.
 HarFok:  IExCor=  205 AccDes= 0.00D+00 IRadAn=         5 IDoV= 1 UseB2=F ITyADJ=14
 ICtDFT=  3500011 ScaDFX=  1.000000  1.000000  1.000000  1.000000
 FoFCou: FMM=F IPFlag=           0 FMFlag=      100000 FMFlg1=           0
         NFxFlg=           0 DoJE=T BraDBF=F KetDBF=T FulRan=T
         wScrn=  0.000000 ICntrl=       500 IOpCl=  0 I1Cent=   200000004 NGrid=           0
         NMat0=    1 NMatS0=      1 NMatT0=    0 NMatD0=    1 NMtDS0=    0 NMtDT0=    0
 Petite list used in FoFCou.
 Initial guess orbital symmetries:
       Occupied  (A') (A') (A') (A') (A")
       Virtual   (A') (A') (A') (A") (A') (A') (A') (A') (A") (A')
                 (A") (A') (A') (A') (A') (A') (A') (A") (A") (A')
                 (A") (A') (A") (A') (A") (A') (A') (A') (A') (A")
                 (A') (A') (A") (A') (A") (A') (A") (A') (A') (A')
                 (A') (A") (A') (A") (A') (A') (A") (A') (A") (A')
                 (A') (A') (A") (A') (A') (A") (A") (A') (A") (A')
                 (A') (A") (A") (A') (A') (A') (A') (A") (A') (A')
                 (A") (A') (A') (A') (A") (A') (A") (A") (A') (A")
                 (A') (A") (A') (A') (A') (A') (A')
 The electronic state of the initial guess is 1-A'.
 Keep R1 ints in memory in symmetry-blocked form, NReq=22811748.
 Requested convergence on RMS density matrix=1.00D-08 within 128 cycles.
 Requested convergence on MAX density matrix=1.00D-06.
 Requested convergence on             energy=1.00D-06.
 No special actions if energy rises.
 SCF Done:  E(RHF) =  -76.0541267707     A.U. after   10 cycles
            NFock= 10  Conv=0.26D-08     -V/T= 1.9987
 ExpMin= 2.53D-02 ExpMax= 1.53D+04 ExpMxC= 5.22D+02 IAcc=3 IRadAn=         5 AccDes= 0.00D+00
 HarFok:  IExCor=  205 AccDes= 0.00D+00 IRadAn=         5 IDoV=-2 UseB2=F ITyADJ=14
 ICtDFT= 12500011 ScaDFX=  1.000000  1.000000  1.000000  1.000000
 Range of M.O.s used for correlation:     2    92
 NBasis=    92 NAE=     5 NBE=     5 NFC=     1 NFV=     0
 NROrb=     91 NOA=     4 NOB=     4 NVA=    87 NVB=    87

 **** Warning!!: The largest alpha MO coefficient is  0.17255871D+02

 Fully in-core method, ICMem=    40034190.
 JobTyp=1 Pass  1 fully in-core, NPsUse= 28.
 Spin components of T(2) and E(2):
     alpha-alpha T2 =       0.7783229233D-02 E2=     -0.3218630361D-01
     alpha-beta  T2 =       0.4503981247D-01 E2=     -0.2007766171D+00
     beta-beta   T2 =       0.7783229233D-02 E2=     -0.3218630361D-01
 ANorm=    0.1029857403D+01
 E2 =    -0.2651492243D+00 EUMP2 =    -0.76319275994985D+02

 **********************************************************************

            Population analysis using the SCF density.

 **********************************************************************

 Orbital symmetries:
       Occupied  (A') (A') (A') (A') (A")
       Virtual   (A') (A') (A') (A") (A') (A') (A') (A') (A") (A")
                 (A') (A') (A') (A') (A') (A') (A') (A") (A") (A')
                 (A") (A') (A") (A') (A") (A') (A') (A') (A') (A")
                 (A') (A") (A') (A') (A") (A') (A") (A') (A') (A')
                 (A') (A") (A') (A") (A') (A') (A") (A') (A') (A")
                 (A') (A') (A") (A') (A') (A") (A") (A') (A") (A')
                 (A') (A") (A") (A') (A') (A') (A') (A") (A') (A')
                 (A") (A') (A') (A') (A") (A') (A") (A") (A') (A")
                 (A') (A") (A') (A') (A') (A') (A')
 The electronic state is 1-A'.
 Alpha  occ. eigenvalues --  -20.55938  -1.37844  -0.74060  -0.59297  -0.51426
 Alpha virt. eigenvalues --    0.02981   0.04789   0.13575   0.15632   0.17564
 Alpha virt. eigenvalues --    0.18313   0.23076   0.24734   0.26588   0.30271
 Alpha virt. eigenvalues --    0.31161   0.36774   0.44281   0.47652   0.60290
 Alpha virt. eigenvalues --    0.66438   0.71040   0.72348   0.73054   0.84316
 Alpha virt. eigenvalues --    0.85146   0.88331   0.91311   0.92028   0.92740
 Alpha virt. eigenvalues --    0.93724   0.96578   1.02748   1.08311   1.08609
 Alpha virt. eigenvalues --    1.11892   1.18682   1.19251   1.25187   1.52000
 Alpha virt. eigenvalues --    1.52825   1.61717   1.78180   1.85841   2.01111
 Alpha virt. eigenvalues --    2.17842   2.26696   2.31570   2.33083   2.42010
 Alpha virt. eigenvalues --    2.43041   2.43125   2.53613   2.66074   2.68272
 Alpha virt. eigenvalues --    2.80673   2.84251   2.90051   3.69399   3.81785
 Alpha virt. eigenvalues --    4.05459   4.14518   4.17016   4.30954   4.33598
 Alpha virt. eigenvalues --    4.37795   4.40112   4.45870   4.55000   4.77547
 Alpha virt. eigenvalues --    4.94224   5.18235   5.23686   5.32779   5.60917
 Alpha virt. eigenvalues --    5.68783   5.76155   6.27144   6.52292   6.73039
 Alpha virt. eigenvalues --    7.01540   7.13100   7.26204   7.30795   7.32369
 Alpha virt. eigenvalues --    7.43684   7.57060   7.73965   7.92121   8.23515
 Alpha virt. eigenvalues --    9.00023  17.30541
          Condensed to atoms (all electrons):
               1          2          3
     1  O    7.790915   0.282527   0.287047
     2  H    0.282527   0.586605   0.001087
     3  H    0.287047   0.001087   0.481158
 Mulliken charges:
               1
     1  O   -0.360489
     2  H    0.129781
     3  H    0.230708
 Sum of Mulliken charges =   0.00000
 Mulliken charges with hydrogens summed into heavy atoms:
               1
     1  O    0.000000
 Electronic spatial extent (au):  <R**2>=             18.9418
 Charge=              0.0000 electrons
 Dipole moment (field-independent basis, Debye):
    X=              0.0413    Y=             -1.9565    Z=             -0.0000  Tot=              1.9569
 Quadrupole moment (field-independent basis, Debye-Ang):
   XX=             -4.3678   YY=             -6.1779   ZZ=             -7.4590
   XY=              0.2361   XZ=              0.0000   YZ=             -0.0000
 Traceless Quadrupole moment (field-independent basis, Debye-Ang):
   XX=              1.6338   YY=             -0.1764   ZZ=             -1.4574
   XY=              0.2361   XZ=              0.0000   YZ=             -0.0000
 Octapole moment (field-independent basis, Debye-Ang**2):
  XXX=              0.1270  YYY=             -1.2049  ZZZ=             -0.0000  XYY=             -0.1593
  XXY=             -1.2724  XXZ=             -0.0000  XZZ=              0.0472  YZZ=             -0.2753
  YYZ=             -0.0000  XYZ=             -0.0000
 Hexadecapole moment (field-independent basis, Debye-Ang**3):
 XXXX=             -5.6981 YYYY=             -6.9385 ZZZZ=             -6.5874 XXXY=             -0.0117
 XXXZ=             -0.0000 YYYX=              0.0086 YYYZ=             -0.0000 ZZZX=             -0.0000
 ZZZY=             -0.0000 XXYY=             -1.7983 XXZZ=             -2.3204 YYZZ=             -2.3038
 XXYZ=              0.0000 YYXZ=             -0.0000 ZZXY=             -0.0573
 N-N= 9.628488443870D+00 E-N=-1.999463590956D+02  KE= 7.615242053389D+01
 Symmetry A'   KE= 7.168765037911D+01
 Symmetry A"   KE= 4.464770154780D+00
 Breneman (CHELPG) radii used.
 Generate Potential Derived Charges using the Breneman model, NDens= 1.
 Grid spacing= 0.300 Box extension= 2.800
 NStep X,Y,Z=   25     22     20   Total possible points=       11000
 Number of Points to Fit=    3934

 **********************************************************************

            Electrostatic Properties Using The SCF Density

 **********************************************************************

       Atomic Center    1 is at   0.000000  0.112915  0.000000
       Atomic Center    2 is at   0.719410 -0.378626  0.000000
       Atomic Center    3 is at  -0.719410 -0.524695 -0.000000
    3934 points will be used for fitting atomic charges
 Fitting point charges to electrostatic potential
 Charges from ESP fit, RMS=   0.00356 RRMS=   0.17024:
 ESP charges:
               1
     1  O   -0.740386
     2  H    0.376477
     3  H    0.363910
 Sum of ESP charges =   0.00000
 ESP charges with hydrogens summed into heavy atoms:
               1
     1  O    0.000000
 Charge=   0.00000 Dipole=     0.0434    -2.0034    -0.0000 Tot=     2.0038
 -----------------------------------------------------------------

              Electrostatic Properties (Atomic Units)

 -----------------------------------------------------------------
    Center     Electric         -------- Electric Field --------
               Potential          X             Y             Z
 -----------------------------------------------------------------
    1 Atom    -22.334568
    2 Atom     -1.013996
    3 Atom     -0.998842
 -----------------------------------------------------------------
 1\1\GINC-N2206\SP\RMP2-FC\Aug-CC-pVTZ\H2O1\GDS001\09-Mar-2024\0\\# mp2
 /aug-cc-pVTZ Pop=ChelpG\\Title: R = 0.8713\\0,1\O\H,1,0.8713\H,1,0.961
 3,2,104.1065\\Version=ES64L-G16RevA.03\State=1-A'\HF=-76.0541268\MP2=-
 76.319276\RMSD=2.550e-09\PG=CS [SG(H2O1)]\\@


 THERE'S NOTHING WRONG WITH FOLLOWING A TRAIN OF THOUGHT...
 AS LONG AS IT ULTIMATELY PULLS INTO THE STATION.
 Job cpu time:       0 days  0 hours  1 minutes 28.8 seconds.
 Elapsed time:       0 days  0 hours  0 minutes  3.5 seconds.
 File lengths (MBytes):  RWF=     72 Int=      0 D2E=      0 Chk=      8 Scr=      8
 Normal termination of Gaussian 16 at Sat Mar  9 10:58:04 2024.
 Initial command:
 /sw/contrib/gaussian/g16/A03/g16/l1.exe "/gscratch/scrubbed/gds001/Gau-12141.inp" -scrdir="/gscratch/scrubbed/gds001/"
 Entering Link 1 = /sw/contrib/gaussian/g16/A03/g16/l1.exe PID=     12864.
  
 Copyright (c) 1988,1990,1992,1993,1995,1998,2003,2009,2016,
            Gaussian, Inc.  All Rights Reserved.
  
 This is part of the Gaussian(R) 16 program.  It is based on
 the Gaussian(R) 09 system (copyright 2009, Gaussian, Inc.),
 the Gaussian(R) 03 system (copyright 2003, Gaussian, Inc.),
 the Gaussian(R) 98 system (copyright 1998, Gaussian, Inc.),
 the Gaussian(R) 94 system (copyright 1995, Gaussian, Inc.),
 the Gaussian 92(TM) system (copyright 1992, Gaussian, Inc.),
 the Gaussian 90(TM) system (copyright 1990, Gaussian, Inc.),
 the Gaussian 88(TM) system (copyright 1988, Gaussian, Inc.),
 the Gaussian 86(TM) system (copyright 1986, Carnegie Mellon
 University), and the Gaussian 82(TM) system (copyright 1983,
 Carnegie Mellon University). Gaussian is a federally registered
 trademark of Gaussian, Inc.
  
 This software contains proprietary and confidential information,
 including trade secrets, belonging to Gaussian, Inc.
  
 This software is provided under written license and may be
 used, copied, transmitted, or stored only in accord with that
 written license.
  
 The following legend is applicable only to US Government
 contracts under FAR:
  
                    RESTRICTED RIGHTS LEGEND
  
 Use, reproduction and disclosure by the US Government is
 subject to restrictions as set forth in subparagraphs (a)
 and (c) of the Commercial Computer Software - Restricted
 Rights clause in FAR 52.227-19.
  
 Gaussian, Inc.
 340 Quinnipiac St., Bldg. 40, Wallingford CT 06492
  
  
 ---------------------------------------------------------------
 Warning -- This program may not be used in any manner that
 competes with the business of Gaussian, Inc. or will provide
 assistance to any competitor of Gaussian, Inc.  The licensee
 of this program is prohibited from giving any competitor of
 Gaussian, Inc. access to this program.  By using this program,
 the user acknowledges that Gaussian, Inc. is engaged in the
 business of creating and licensing software in the field of
 computational chemistry and represents and warrants to the
 licensee that it is not a competitor of Gaussian, Inc. and that
 it will not use this program in any manner prohibited above.
 ---------------------------------------------------------------
  

 Cite this work as:
 Gaussian 16, Revision A.03,
 M. J. Frisch, G. W. Trucks, H. B. Schlegel, G. E. Scuseria, 
 M. A. Robb, J. R. Cheeseman, G. Scalmani, V. Barone, 
 G. A. Petersson, H. Nakatsuji, X. Li, M. Caricato, A. V. Marenich, 
 J. Bloino, B. G. Janesko, R. Gomperts, B. Mennucci, H. P. Hratchian, 
 J. V. Ortiz, A. F. Izmaylov, J. L. Sonnenberg, D. Williams-Young, 
 F. Ding, F. Lipparini, F. Egidi, J. Goings, B. Peng, A. Petrone, 
 T. Henderson, D. Ranasinghe, V. G. Zakrzewski, J. Gao, N. Rega, 
 G. Zheng, W. Liang, M. Hada, M. Ehara, K. Toyota, R. Fukuda, 
 J. Hasegawa, M. Ishida, T. Nakajima, Y. Honda, O. Kitao, H. Nakai, 
 T. Vreven, K. Throssell, J. A. Montgomery, Jr., J. E. Peralta, 
 F. Ogliaro, M. J. Bearpark, J. J. Heyd, E. N. Brothers, K. N. Kudin, 
 V. N. Staroverov, T. A. Keith, R. Kobayashi, J. Normand, 
 K. Raghavachari, A. P. Rendell, J. C. Burant, S. S. Iyengar, 
 J. Tomasi, M. Cossi, J. M. Millam, M. Klene, C. Adamo, R. Cammi, 
 J. W. Ochterski, R. L. Martin, K. Morokuma, O. Farkas, 
 J. B. Foresman, and D. J. Fox, Gaussian, Inc., Wallingford CT, 2016.
 
 ******************************************
 Gaussian 16:  ES64L-G16RevA.03 25-Dec-2016
                 9-Mar-2024 
 ******************************************
 %nprocshared=28
 Will use up to   28 processors via shared memory.
 %mem=41GB
 ----------------------------
 # mp2/aug-cc-pVTZ Pop=ChelpG
 ----------------------------
 1/38=1,172=1/1;
 2/12=2,17=6,18=5,40=1/2;
 3/5=16,6=1,7=10,11=9,25=1,30=1/1,2,3;
 4//1;
 5/5=2,38=5/2;
 8/10=1/1;
 9/16=-3/6;
 6/7=2,8=2,9=2,10=2,15=8,20=3/1,2;
 99/5=1,9=1/99;
 -----------------
 Title: R = 0.8813
 -----------------
 Symbolic Z-matrix:
 Charge =  0 Multiplicity = 1
 O
 H                    1    R1
 H                    1    R2       2    A1
       Variables:
  R2                    0.9613                   
  A1                  104.1065                   
  R1                    0.8813                   
 
                          Input orientation:                          
 ---------------------------------------------------------------------
 Center     Atomic      Atomic             Coordinates (Angstroms)
 Number     Number       Type             X           Y           Z
 ---------------------------------------------------------------------
      1          8           0        0.000000    0.000000    0.000000
      2          1           0        0.000000    0.000000    0.881300
      3          1           0        0.932311    0.000000   -0.234293
 ---------------------------------------------------------------------
                    Distance matrix (angstroms):
                    1          2          3
     1  O    0.000000
     2  H    0.881300   0.000000
     3  H    0.961300   1.453875   0.000000
 Stoichiometry    H2O
 Framework group  CS[SG(H2O)]
 Deg. of freedom     3
 Full point group                 CS      NOp   2
 Largest Abelian subgroup         CS      NOp   2
 Largest concise Abelian subgroup C1      NOp   1
                         Standard orientation:                         
 ---------------------------------------------------------------------
 Center     Atomic      Atomic             Coordinates (Angstroms)
 Number     Number       Type             X           Y           Z
 ---------------------------------------------------------------------
      1          8           0        0.000000    0.113482    0.000000
      2          1           0        0.724030   -0.388982   -0.000000
      3          1           0       -0.724030   -0.518877    0.000000
 ---------------------------------------------------------------------
 Rotational constants (GHZ):         892.1138847         470.1318704         307.8821627
 Standard basis: Aug-CC-pVTZ (5D, 7F)
 There are    73 symmetry adapted cartesian basis functions of A'  symmetry.
 There are    32 symmetry adapted cartesian basis functions of A"  symmetry.
 There are    62 symmetry adapted basis functions of A'  symmetry.
 There are    30 symmetry adapted basis functions of A"  symmetry.
    92 basis functions,   126 primitive gaussians,   105 cartesian basis functions
     5 alpha electrons        5 beta electrons
       nuclear repulsion energy         9.5714293773 Hartrees.
 NAtoms=    3 NActive=    3 NUniq=    3 SFac= 1.00D+00 NAtFMM=   60 NAOKFM=F Big=F
 Integral buffers will be    131072 words long.
 Raffenetti 1 integral format.
 Two-electron integral symmetry is turned on.
 One-electron integrals computed using PRISM.
 NBasis=    92 RedAO= T EigKep=  3.23D-04  NBF=    62    30
 NBsUse=    92 1.00D-06 EigRej= -1.00D+00 NBFU=    62    30
 ExpMin= 2.53D-02 ExpMax= 1.53D+04 ExpMxC= 5.22D+02 IAcc=3 IRadAn=         5 AccDes= 0.00D+00
 Harris functional with IExCor=  205 and IRadAn=       5 diagonalized for initial guess.
 HarFok:  IExCor=  205 AccDes= 0.00D+00 IRadAn=         5 IDoV= 1 UseB2=F ITyADJ=14
 ICtDFT=  3500011 ScaDFX=  1.000000  1.000000  1.000000  1.000000
 FoFCou: FMM=F IPFlag=           0 FMFlag=      100000 FMFlg1=           0
         NFxFlg=           0 DoJE=T BraDBF=F KetDBF=T FulRan=T
         wScrn=  0.000000 ICntrl=       500 IOpCl=  0 I1Cent=   200000004 NGrid=           0
         NMat0=    1 NMatS0=      1 NMatT0=    0 NMatD0=    1 NMtDS0=    0 NMtDT0=    0
 Petite list used in FoFCou.
 Initial guess orbital symmetries:
       Occupied  (A') (A') (A') (A') (A")
       Virtual   (A') (A') (A') (A") (A') (A') (A') (A') (A") (A')
                 (A") (A') (A') (A') (A') (A') (A') (A") (A") (A')
                 (A") (A') (A") (A') (A") (A') (A') (A') (A') (A")
                 (A') (A') (A") (A') (A") (A') (A") (A') (A') (A')
                 (A') (A") (A') (A") (A') (A') (A") (A') (A") (A')
                 (A') (A') (A") (A') (A') (A") (A") (A') (A") (A')
                 (A') (A") (A") (A') (A') (A') (A') (A") (A') (A')
                 (A") (A') (A') (A') (A") (A') (A") (A") (A') (A")
                 (A') (A") (A') (A') (A') (A') (A')
 The electronic state of the initial guess is 1-A'.
 Keep R1 ints in memory in symmetry-blocked form, NReq=22811748.
 Requested convergence on RMS density matrix=1.00D-08 within 128 cycles.
 Requested convergence on MAX density matrix=1.00D-06.
 Requested convergence on             energy=1.00D-06.
 No special actions if energy rises.
 SCF Done:  E(RHF) =  -76.0559619127     A.U. after   10 cycles
            NFock= 10  Conv=0.26D-08     -V/T= 1.9991
 ExpMin= 2.53D-02 ExpMax= 1.53D+04 ExpMxC= 5.22D+02 IAcc=3 IRadAn=         5 AccDes= 0.00D+00
 HarFok:  IExCor=  205 AccDes= 0.00D+00 IRadAn=         5 IDoV=-2 UseB2=F ITyADJ=14
 ICtDFT= 12500011 ScaDFX=  1.000000  1.000000  1.000000  1.000000
 Range of M.O.s used for correlation:     2    92
 NBasis=    92 NAE=     5 NBE=     5 NFC=     1 NFV=     0
 NROrb=     91 NOA=     4 NOB=     4 NVA=    87 NVB=    87

 **** Warning!!: The largest alpha MO coefficient is  0.17101364D+02

 Fully in-core method, ICMem=    40034190.
 JobTyp=1 Pass  1 fully in-core, NPsUse= 28.
 Spin components of T(2) and E(2):
     alpha-alpha T2 =       0.7824463470D-02 E2=     -0.3223394469D-01
     alpha-beta  T2 =       0.4528670336D-01 E2=     -0.2010694493D+00
     beta-beta   T2 =       0.7824463470D-02 E2=     -0.3223394469D-01
 ANorm=    0.1030017296D+01
 E2 =    -0.2655373387D+00 EUMP2 =    -0.76321499251348D+02

 **********************************************************************

            Population analysis using the SCF density.

 **********************************************************************

 Orbital symmetries:
       Occupied  (A') (A') (A') (A') (A")
       Virtual   (A') (A') (A') (A") (A') (A') (A') (A') (A") (A")
                 (A') (A') (A') (A') (A') (A') (A') (A") (A") (A')
                 (A") (A') (A") (A') (A") (A') (A') (A') (A') (A")
                 (A') (A") (A') (A') (A") (A') (A") (A') (A') (A')
                 (A') (A") (A') (A") (A') (A') (A") (A') (A') (A")
                 (A') (A') (A") (A') (A') (A") (A") (A') (A") (A')
                 (A') (A") (A") (A') (A') (A') (A') (A") (A') (A')
                 (A") (A') (A') (A') (A") (A') (A") (A") (A') (A")
                 (A') (A") (A') (A') (A') (A') (A')
 The electronic state is 1-A'.
 Alpha  occ. eigenvalues --  -20.56042  -1.37511  -0.73764  -0.59213  -0.51377
 Alpha virt. eigenvalues --    0.02977   0.04786   0.13579   0.15662   0.17567
 Alpha virt. eigenvalues --    0.18311   0.23041   0.24705   0.26581   0.30235
 Alpha virt. eigenvalues --    0.31145   0.36750   0.44251   0.47529   0.60235
 Alpha virt. eigenvalues --    0.66361   0.71008   0.72326   0.73061   0.84199
 Alpha virt. eigenvalues --    0.85086   0.88429   0.91365   0.91961   0.92689
 Alpha virt. eigenvalues --    0.93637   0.96529   1.02750   1.07685   1.08596
 Alpha virt. eigenvalues --    1.11764   1.18568   1.19177   1.25208   1.51934
 Alpha virt. eigenvalues --    1.52894   1.61267   1.78422   1.85439   2.01030
 Alpha virt. eigenvalues --    2.17076   2.26661   2.31649   2.32879   2.42206
 Alpha virt. eigenvalues --    2.42960   2.42999   2.52609   2.66148   2.68484
 Alpha virt. eigenvalues --    2.80390   2.83798   2.89953   3.69120   3.80898
 Alpha virt. eigenvalues --    4.05076   4.13722   4.17059   4.30674   4.32514
 Alpha virt. eigenvalues --    4.37650   4.39821   4.45151   4.54685   4.76990
 Alpha virt. eigenvalues --    4.93475   5.18046   5.22939   5.31994   5.57188
 Alpha virt. eigenvalues --    5.66778   5.74572   6.25920   6.52036   6.72731
 Alpha virt. eigenvalues --    7.00022   7.13413   7.26250   7.31137   7.32631
 Alpha virt. eigenvalues --    7.42140   7.53412   7.71053   7.91907   8.18479
 Alpha virt. eigenvalues --    8.98045  17.11202
          Condensed to atoms (all electrons):
               1          2          3
     1  O    7.804232   0.281149   0.285231
     2  H    0.281149   0.574416   0.003226
     3  H    0.285231   0.003226   0.482139
 Mulliken charges:
               1
     1  O   -0.370613
     2  H    0.141209
     3  H    0.229404
 Sum of Mulliken charges =   0.00000
 Mulliken charges with hydrogens summed into heavy atoms:
               1
     1  O    0.000000
 Electronic spatial extent (au):  <R**2>=             19.0057
 Charge=              0.0000 electrons
 Dipole moment (field-independent basis, Debye):
    X=              0.0365    Y=             -1.9604    Z=             -0.0000  Tot=              1.9607
 Quadrupole moment (field-independent basis, Debye-Ang):
   XX=             -4.3540   YY=             -6.1872   ZZ=             -7.4714
   XY=              0.2109   XZ=             -0.0000   YZ=             -0.0000
 Traceless Quadrupole moment (field-independent basis, Debye-Ang):
   XX=              1.6502   YY=             -0.1830   ZZ=             -1.4672
   XY=              0.2109   XZ=             -0.0000   YZ=             -0.0000
 Octapole moment (field-independent basis, Debye-Ang**2):
  XXX=              0.1130  YYY=             -1.1966  ZZZ=             -0.0000  XYY=             -0.1437
  XXY=             -1.2885  XXZ=             -0.0000  XZZ=              0.0419  YZZ=             -0.2732
  YYZ=             -0.0000  XYZ=              0.0000
 Hexadecapole moment (field-independent basis, Debye-Ang**3):
 XXXX=             -5.7310 YYYY=             -6.9728 ZZZZ=             -6.6045 XXXY=             -0.0102
 XXXZ=              0.0000 YYYX=              0.0077 YYYZ=             -0.0000 ZZZX=              0.0000
 ZZZY=             -0.0000 XXYY=             -1.8053 XXZZ=             -2.3352 YYZZ=             -2.3119
 XXYZ=             -0.0000 YYXZ=              0.0000 ZZXY=             -0.0516
 N-N= 9.571429377342D+00 E-N=-1.998223496242D+02  KE= 7.612569173870D+01
 Symmetry A'   KE= 7.166111904988D+01
 Symmetry A"   KE= 4.464572688818D+00
 Breneman (CHELPG) radii used.
 Generate Potential Derived Charges using the Breneman model, NDens= 1.
 Grid spacing= 0.300 Box extension= 2.800
 NStep X,Y,Z=   25     22     20   Total possible points=       11000
 Number of Points to Fit=    3936

 **********************************************************************

            Electrostatic Properties Using The SCF Density

 **********************************************************************

       Atomic Center    1 is at   0.000000  0.113482  0.000000
       Atomic Center    2 is at   0.724030 -0.388982 -0.000000
       Atomic Center    3 is at  -0.724030 -0.518877  0.000000
    3936 points will be used for fitting atomic charges
 Fitting point charges to electrostatic potential
 Charges from ESP fit, RMS=   0.00357 RRMS=   0.17052:
 ESP charges:
               1
     1  O   -0.738263
     2  H    0.374509
     3  H    0.363754
 Sum of ESP charges =   0.00000
 ESP charges with hydrogens summed into heavy atoms:
               1
     1  O    0.000000
 Charge=   0.00000 Dipole=     0.0374    -2.0087    -0.0000 Tot=     2.0090
 -----------------------------------------------------------------

              Electrostatic Properties (Atomic Units)

 -----------------------------------------------------------------
    Center     Electric         -------- Electric Field --------
               Potential          X             Y             Z
 -----------------------------------------------------------------
    1 Atom    -22.333381
    2 Atom     -1.013315
    3 Atom     -0.999133
 -----------------------------------------------------------------
 1\1\GINC-N2206\SP\RMP2-FC\Aug-CC-pVTZ\H2O1\GDS001\09-Mar-2024\0\\# mp2
 /aug-cc-pVTZ Pop=ChelpG\\Title: R = 0.8813\\0,1\O\H,1,0.8813\H,1,0.961
 3,2,104.1065\\Version=ES64L-G16RevA.03\State=1-A'\HF=-76.0559619\MP2=-
 76.3214993\RMSD=2.621e-09\PG=CS [SG(H2O1)]\\@


 FROM AN ANONYMOUS WRITER, ON PERSPECTIVE:

 MAN, DESPITE HIS ARTISTIC PRETENSIONS, HIS SOPHISTICATION AND MANY 
 ACCOMPLISHMENTS, OWES THE FACT OF HIS EXISTENCE TO A SIX-INCH LAYER OF 
 TOPSOIL AND THE FACT THAT IT RAINS.
 Job cpu time:       0 days  0 hours  1 minutes  0.3 seconds.
 Elapsed time:       0 days  0 hours  0 minutes  2.5 seconds.
 File lengths (MBytes):  RWF=     72 Int=      0 D2E=      0 Chk=      8 Scr=      8
 Normal termination of Gaussian 16 at Sat Mar  9 10:58:07 2024.
 Initial command:
 /sw/contrib/gaussian/g16/A03/g16/l1.exe "/gscratch/scrubbed/gds001/Gau-12141.inp" -scrdir="/gscratch/scrubbed/gds001/"
 Entering Link 1 = /sw/contrib/gaussian/g16/A03/g16/l1.exe PID=     13284.
  
 Copyright (c) 1988,1990,1992,1993,1995,1998,2003,2009,2016,
            Gaussian, Inc.  All Rights Reserved.
  
 This is part of the Gaussian(R) 16 program.  It is based on
 the Gaussian(R) 09 system (copyright 2009, Gaussian, Inc.),
 the Gaussian(R) 03 system (copyright 2003, Gaussian, Inc.),
 the Gaussian(R) 98 system (copyright 1998, Gaussian, Inc.),
 the Gaussian(R) 94 system (copyright 1995, Gaussian, Inc.),
 the Gaussian 92(TM) system (copyright 1992, Gaussian, Inc.),
 the Gaussian 90(TM) system (copyright 1990, Gaussian, Inc.),
 the Gaussian 88(TM) system (copyright 1988, Gaussian, Inc.),
 the Gaussian 86(TM) system (copyright 1986, Carnegie Mellon
 University), and the Gaussian 82(TM) system (copyright 1983,
 Carnegie Mellon University). Gaussian is a federally registered
 trademark of Gaussian, Inc.
  
 This software contains proprietary and confidential information,
 including trade secrets, belonging to Gaussian, Inc.
  
 This software is provided under written license and may be
 used, copied, transmitted, or stored only in accord with that
 written license.
  
 The following legend is applicable only to US Government
 contracts under FAR:
  
                    RESTRICTED RIGHTS LEGEND
  
 Use, reproduction and disclosure by the US Government is
 subject to restrictions as set forth in subparagraphs (a)
 and (c) of the Commercial Computer Software - Restricted
 Rights clause in FAR 52.227-19.
  
 Gaussian, Inc.
 340 Quinnipiac St., Bldg. 40, Wallingford CT 06492
  
  
 ---------------------------------------------------------------
 Warning -- This program may not be used in any manner that
 competes with the business of Gaussian, Inc. or will provide
 assistance to any competitor of Gaussian, Inc.  The licensee
 of this program is prohibited from giving any competitor of
 Gaussian, Inc. access to this program.  By using this program,
 the user acknowledges that Gaussian, Inc. is engaged in the
 business of creating and licensing software in the field of
 computational chemistry and represents and warrants to the
 licensee that it is not a competitor of Gaussian, Inc. and that
 it will not use this program in any manner prohibited above.
 ---------------------------------------------------------------
  

 Cite this work as:
 Gaussian 16, Revision A.03,
 M. J. Frisch, G. W. Trucks, H. B. Schlegel, G. E. Scuseria, 
 M. A. Robb, J. R. Cheeseman, G. Scalmani, V. Barone, 
 G. A. Petersson, H. Nakatsuji, X. Li, M. Caricato, A. V. Marenich, 
 J. Bloino, B. G. Janesko, R. Gomperts, B. Mennucci, H. P. Hratchian, 
 J. V. Ortiz, A. F. Izmaylov, J. L. Sonnenberg, D. Williams-Young, 
 F. Ding, F. Lipparini, F. Egidi, J. Goings, B. Peng, A. Petrone, 
 T. Henderson, D. Ranasinghe, V. G. Zakrzewski, J. Gao, N. Rega, 
 G. Zheng, W. Liang, M. Hada, M. Ehara, K. Toyota, R. Fukuda, 
 J. Hasegawa, M. Ishida, T. Nakajima, Y. Honda, O. Kitao, H. Nakai, 
 T. Vreven, K. Throssell, J. A. Montgomery, Jr., J. E. Peralta, 
 F. Ogliaro, M. J. Bearpark, J. J. Heyd, E. N. Brothers, K. N. Kudin, 
 V. N. Staroverov, T. A. Keith, R. Kobayashi, J. Normand, 
 K. Raghavachari, A. P. Rendell, J. C. Burant, S. S. Iyengar, 
 J. Tomasi, M. Cossi, J. M. Millam, M. Klene, C. Adamo, R. Cammi, 
 J. W. Ochterski, R. L. Martin, K. Morokuma, O. Farkas, 
 J. B. Foresman, and D. J. Fox, Gaussian, Inc., Wallingford CT, 2016.
 
 ******************************************
 Gaussian 16:  ES64L-G16RevA.03 25-Dec-2016
                 9-Mar-2024 
 ******************************************
 %nprocshared=28
 Will use up to   28 processors via shared memory.
 %mem=41GB
 ----------------------------
 # mp2/aug-cc-pVTZ Pop=ChelpG
 ----------------------------
 1/38=1,172=1/1;
 2/12=2,17=6,18=5,40=1/2;
 3/5=16,6=1,7=10,11=9,25=1,30=1/1,2,3;
 4//1;
 5/5=2,38=5/2;
 8/10=1/1;
 9/16=-3/6;
 6/7=2,8=2,9=2,10=2,15=8,20=3/1,2;
 99/5=1,9=1/99;
 -----------------
 Title: R = 0.8913
 -----------------
 Symbolic Z-matrix:
 Charge =  0 Multiplicity = 1
 O
 H                    1    R1
 H                    1    R2       2    A1
       Variables:
  R2                    0.9613                   
  A1                  104.1065                   
  R1                    0.8913                   
 
                          Input orientation:                          
 ---------------------------------------------------------------------
 Center     Atomic      Atomic             Coordinates (Angstroms)
 Number     Number       Type             X           Y           Z
 ---------------------------------------------------------------------
      1          8           0        0.000000    0.000000    0.000000
      2          1           0        0.000000    0.000000    0.891300
      3          1           0        0.932311    0.000000   -0.234293
 ---------------------------------------------------------------------
                    Distance matrix (angstroms):
                    1          2          3
     1  O    0.000000
     2  H    0.891300   0.000000
     3  H    0.961300   1.461562   0.000000
 Stoichiometry    H2O
 Framework group  CS[SG(H2O)]
 Deg. of freedom     3
 Full point group                 CS      NOp   2
 Largest Abelian subgroup         CS      NOp   2
 Largest concise Abelian subgroup C1      NOp   1
                         Standard orientation:                         
 ---------------------------------------------------------------------
 Center     Atomic      Atomic             Coordinates (Angstroms)
 Number     Number       Type             X           Y           Z
 ---------------------------------------------------------------------
      1          8           0       -0.000000    0.114055   -0.000000
      2          1           0        0.728566   -0.399371    0.000000
      3          1           0       -0.728566   -0.513072    0.000000
 ---------------------------------------------------------------------
 Rotational constants (GHZ):         879.5298066         466.2181289         304.7024855
 Standard basis: Aug-CC-pVTZ (5D, 7F)
 There are    73 symmetry adapted cartesian basis functions of A'  symmetry.
 There are    32 symmetry adapted cartesian basis functions of A"  symmetry.
 There are    62 symmetry adapted basis functions of A'  symmetry.
 There are    30 symmetry adapted basis functions of A"  symmetry.
    92 basis functions,   126 primitive gaussians,   105 cartesian basis functions
     5 alpha electrons        5 beta electrons
       nuclear repulsion energy         9.5156206092 Hartrees.
 NAtoms=    3 NActive=    3 NUniq=    3 SFac= 1.00D+00 NAtFMM=   60 NAOKFM=F Big=F
 Integral buffers will be    131072 words long.
 Raffenetti 1 integral format.
 Two-electron integral symmetry is turned on.
 One-electron integrals computed using PRISM.
 NBasis=    92 RedAO= T EigKep=  3.31D-04  NBF=    62    30
 NBsUse=    92 1.00D-06 EigRej= -1.00D+00 NBFU=    62    30
 ExpMin= 2.53D-02 ExpMax= 1.53D+04 ExpMxC= 5.22D+02 IAcc=3 IRadAn=         5 AccDes= 0.00D+00
 Harris functional with IExCor=  205 and IRadAn=       5 diagonalized for initial guess.
 HarFok:  IExCor=  205 AccDes= 0.00D+00 IRadAn=         5 IDoV= 1 UseB2=F ITyADJ=14
 ICtDFT=  3500011 ScaDFX=  1.000000  1.000000  1.000000  1.000000
 FoFCou: FMM=F IPFlag=           0 FMFlag=      100000 FMFlg1=           0
         NFxFlg=           0 DoJE=T BraDBF=F KetDBF=T FulRan=T
         wScrn=  0.000000 ICntrl=       500 IOpCl=  0 I1Cent=   200000004 NGrid=           0
         NMat0=    1 NMatS0=      1 NMatT0=    0 NMatD0=    1 NMtDS0=    0 NMtDT0=    0
 Petite list used in FoFCou.
 Initial guess orbital symmetries:
       Occupied  (A') (A') (A') (A') (A")
       Virtual   (A') (A') (A') (A") (A') (A') (A') (A') (A") (A')
                 (A") (A') (A') (A') (A') (A') (A') (A") (A") (A')
                 (A") (A') (A") (A') (A") (A') (A') (A') (A') (A")
                 (A') (A') (A") (A') (A") (A') (A") (A') (A') (A')
                 (A') (A") (A") (A') (A') (A') (A") (A') (A") (A')
                 (A') (A') (A") (A') (A') (A") (A") (A') (A") (A')
                 (A') (A") (A") (A') (A') (A') (A') (A") (A') (A')
                 (A") (A') (A') (A') (A") (A') (A") (A") (A') (A")
                 (A') (A") (A') (A') (A') (A') (A')
 The electronic state of the initial guess is 1-A'.
 Keep R1 ints in memory in symmetry-blocked form, NReq=22811748.
 Requested convergence on RMS density matrix=1.00D-08 within 128 cycles.
 Requested convergence on MAX density matrix=1.00D-06.
 Requested convergence on             energy=1.00D-06.
 No special actions if energy rises.
 SCF Done:  E(RHF) =  -76.0574637993     A.U. after   10 cycles
            NFock= 10  Conv=0.27D-08     -V/T= 1.9994
 ExpMin= 2.53D-02 ExpMax= 1.53D+04 ExpMxC= 5.22D+02 IAcc=3 IRadAn=         5 AccDes= 0.00D+00
 HarFok:  IExCor=  205 AccDes= 0.00D+00 IRadAn=         5 IDoV=-2 UseB2=F ITyADJ=14
 ICtDFT= 12500011 ScaDFX=  1.000000  1.000000  1.000000  1.000000
 Range of M.O.s used for correlation:     2    92
 NBasis=    92 NAE=     5 NBE=     5 NFC=     1 NFV=     0
 NROrb=     91 NOA=     4 NOB=     4 NVA=    87 NVB=    87

 **** Warning!!: The largest alpha MO coefficient is  0.16943888D+02

 Fully in-core method, ICMem=    40034190.
 JobTyp=1 Pass  1 fully in-core, NPsUse= 28.
 Spin components of T(2) and E(2):
     alpha-alpha T2 =       0.7865838770D-02 E2=     -0.3228151283D-01
     alpha-beta  T2 =       0.4553683811D-01 E2=     -0.2013645715D+00
     beta-beta   T2 =       0.7865838770D-02 E2=     -0.3228151283D-01
 ANorm=    0.1030178876D+01
 E2 =    -0.2659275972D+00 EUMP2 =    -0.76323391396477D+02

 **********************************************************************

            Population analysis using the SCF density.

 **********************************************************************

 Orbital symmetries:
       Occupied  (A') (A') (A') (A') (A")
       Virtual   (A') (A') (A') (A") (A') (A') (A') (A') (A") (A")
                 (A') (A') (A') (A') (A') (A') (A') (A") (A") (A')
                 (A") (A') (A") (A') (A") (A') (A') (A') (A') (A")
                 (A') (A") (A') (A') (A") (A') (A") (A') (A') (A')
                 (A') (A") (A') (A") (A') (A") (A') (A') (A') (A")
                 (A') (A') (A") (A') (A') (A") (A") (A') (A") (A')
                 (A') (A") (A") (A') (A') (A') (A') (A") (A') (A')
                 (A") (A') (A') (A') (A") (A') (A") (A") (A') (A")
                 (A') (A") (A') (A') (A') (A') (A')
 The electronic state is 1-A'.
 Alpha  occ. eigenvalues --  -20.56144  -1.37188  -0.73469  -0.59129  -0.51328
 Alpha virt. eigenvalues --    0.02973   0.04784   0.13583   0.15690   0.17569
 Alpha virt. eigenvalues --    0.18310   0.23004   0.24676   0.26575   0.30201
 Alpha virt. eigenvalues --    0.31130   0.36726   0.44216   0.47404   0.60184
 Alpha virt. eigenvalues --    0.66286   0.70977   0.72306   0.73069   0.84076
 Alpha virt. eigenvalues --    0.85027   0.88528   0.91420   0.91889   0.92636
 Alpha virt. eigenvalues --    0.93555   0.96480   1.02743   1.07088   1.08575
 Alpha virt. eigenvalues --    1.11642   1.18453   1.19094   1.25251   1.51859
 Alpha virt. eigenvalues --    1.52964   1.60831   1.78674   1.85030   2.00912
 Alpha virt. eigenvalues --    2.16310   2.26623   2.31752   2.32683   2.42351
 Alpha virt. eigenvalues --    2.42874   2.42949   2.51678   2.66243   2.68685
 Alpha virt. eigenvalues --    2.80085   2.83374   2.89832   3.68816   3.80003
 Alpha virt. eigenvalues --    4.04683   4.12949   4.17084   4.30406   4.31432
 Alpha virt. eigenvalues --    4.37542   4.39536   4.44463   4.54360   4.76439
 Alpha virt. eigenvalues --    4.92639   5.17860   5.22146   5.31190   5.53440
 Alpha virt. eigenvalues --    5.64778   5.73196   6.24727   6.51804   6.72441
 Alpha virt. eigenvalues --    6.98545   7.13665   7.26270   7.31430   7.32877
 Alpha virt. eigenvalues --    7.40611   7.49970   7.68233   7.91734   8.13865
 Alpha virt. eigenvalues --    8.96024  16.92150
          Condensed to atoms (all electrons):
               1          2          3
     1  O    7.817481   0.279818   0.283383
     2  H    0.279818   0.562299   0.005387
     3  H    0.283383   0.005387   0.483044
 Mulliken charges:
               1
     1  O   -0.380683
     2  H    0.152496
     3  H    0.228186
 Sum of Mulliken charges =  -0.00000
 Mulliken charges with hydrogens summed into heavy atoms:
               1
     1  O   -0.000000
 Electronic spatial extent (au):  <R**2>=             19.0697
 Charge=             -0.0000 electrons
 Dipole moment (field-independent basis, Debye):
    X=              0.0319    Y=             -1.9643    Z=              0.0000  Tot=              1.9645
 Quadrupole moment (field-independent basis, Debye-Ang):
   XX=             -4.3405   YY=             -6.1957   ZZ=             -7.4836
   XY=              0.1855   XZ=             -0.0000   YZ=              0.0000
 Traceless Quadrupole moment (field-independent basis, Debye-Ang):
   XX=              1.6661   YY=             -0.1891   ZZ=             -1.4770
   XY=              0.1855   XZ=             -0.0000   YZ=              0.0000
 Octapole moment (field-independent basis, Debye-Ang**2):
  XXX=              0.0991  YYY=             -1.1887  ZZZ=              0.0000  XYY=             -0.1275
  XXY=             -1.3046  XXZ=              0.0000  XZZ=              0.0367  YZZ=             -0.2710
  YYZ=              0.0000  XYZ=              0.0000
 Hexadecapole moment (field-independent basis, Debye-Ang**3):
 XXXX=             -5.7640 YYYY=             -7.0077 ZZZZ=             -6.6216 XXXY=             -0.0088
 XXXZ=              0.0000 YYYX=              0.0067 YYYZ=              0.0000 ZZZX=              0.0000
 ZZZY=              0.0000 XXYY=             -1.8122 XXZZ=             -2.3499 YYZZ=             -2.3203
 XXYZ=              0.0000 YYXZ=             -0.0000 ZZXY=             -0.0458
 N-N= 9.515620609200D+00 E-N=-1.997009255381D+02  KE= 7.609990873854D+01
 Symmetry A'   KE= 7.163540662033D+01
 Symmetry A"   KE= 4.464502118210D+00
 Breneman (CHELPG) radii used.
 Generate Potential Derived Charges using the Breneman model, NDens= 1.
 Grid spacing= 0.300 Box extension= 2.800
 NStep X,Y,Z=   25     22     20   Total possible points=       11000
 Number of Points to Fit=    3942

 **********************************************************************

            Electrostatic Properties Using The SCF Density

 **********************************************************************

       Atomic Center    1 is at  -0.000000  0.114055 -0.000000
       Atomic Center    2 is at   0.728566 -0.399371  0.000000
       Atomic Center    3 is at  -0.728566 -0.513072  0.000000
    3942 points will be used for fitting atomic charges
 Fitting point charges to electrostatic potential
 Charges from ESP fit, RMS=   0.00357 RRMS=   0.17057:
 ESP charges:
               1
     1  O   -0.735323
     2  H    0.372490
     3  H    0.362833
 Sum of ESP charges =  -0.00000
 ESP charges with hydrogens summed into heavy atoms:
               1
     1  O   -0.000000
 Charge=  -0.00000 Dipole=     0.0338    -2.0115     0.0000 Tot=     2.0118
 -----------------------------------------------------------------

              Electrostatic Properties (Atomic Units)

 -----------------------------------------------------------------
    Center     Electric         -------- Electric Field --------
               Potential          X             Y             Z
 -----------------------------------------------------------------
    1 Atom    -22.332231
    2 Atom     -1.012414
    3 Atom     -0.999420
 -----------------------------------------------------------------
 1\1\GINC-N2206\SP\RMP2-FC\Aug-CC-pVTZ\H2O1\GDS001\09-Mar-2024\0\\# mp2
 /aug-cc-pVTZ Pop=ChelpG\\Title: R = 0.8913\\0,1\O\H,1,0.8913\H,1,0.961
 3,2,104.1065\\Version=ES64L-G16RevA.03\State=1-A'\HF=-76.0574638\MP2=-
 76.3233914\RMSD=2.702e-09\PG=CS [SG(H2O1)]\\@


 There are more things in heaven and earth, Horatio,
 than are dreamt of in your philosophy.
                   -- Hamlet, Act I, Scene 5
 Job cpu time:       0 days  0 hours  0 minutes 57.9 seconds.
 Elapsed time:       0 days  0 hours  0 minutes  2.4 seconds.
 File lengths (MBytes):  RWF=     72 Int=      0 D2E=      0 Chk=      8 Scr=      8
 Normal termination of Gaussian 16 at Sat Mar  9 10:58:09 2024.
 Initial command:
 /sw/contrib/gaussian/g16/A03/g16/l1.exe "/gscratch/scrubbed/gds001/Gau-12141.inp" -scrdir="/gscratch/scrubbed/gds001/"
 Entering Link 1 = /sw/contrib/gaussian/g16/A03/g16/l1.exe PID=     13643.
  
 Copyright (c) 1988,1990,1992,1993,1995,1998,2003,2009,2016,
            Gaussian, Inc.  All Rights Reserved.
  
 This is part of the Gaussian(R) 16 program.  It is based on
 the Gaussian(R) 09 system (copyright 2009, Gaussian, Inc.),
 the Gaussian(R) 03 system (copyright 2003, Gaussian, Inc.),
 the Gaussian(R) 98 system (copyright 1998, Gaussian, Inc.),
 the Gaussian(R) 94 system (copyright 1995, Gaussian, Inc.),
 the Gaussian 92(TM) system (copyright 1992, Gaussian, Inc.),
 the Gaussian 90(TM) system (copyright 1990, Gaussian, Inc.),
 the Gaussian 88(TM) system (copyright 1988, Gaussian, Inc.),
 the Gaussian 86(TM) system (copyright 1986, Carnegie Mellon
 University), and the Gaussian 82(TM) system (copyright 1983,
 Carnegie Mellon University). Gaussian is a federally registered
 trademark of Gaussian, Inc.
  
 This software contains proprietary and confidential information,
 including trade secrets, belonging to Gaussian, Inc.
  
 This software is provided under written license and may be
 used, copied, transmitted, or stored only in accord with that
 written license.
  
 The following legend is applicable only to US Government
 contracts under FAR:
  
                    RESTRICTED RIGHTS LEGEND
  
 Use, reproduction and disclosure by the US Government is
 subject to restrictions as set forth in subparagraphs (a)
 and (c) of the Commercial Computer Software - Restricted
 Rights clause in FAR 52.227-19.
  
 Gaussian, Inc.
 340 Quinnipiac St., Bldg. 40, Wallingford CT 06492
  
  
 ---------------------------------------------------------------
 Warning -- This program may not be used in any manner that
 competes with the business of Gaussian, Inc. or will provide
 assistance to any competitor of Gaussian, Inc.  The licensee
 of this program is prohibited from giving any competitor of
 Gaussian, Inc. access to this program.  By using this program,
 the user acknowledges that Gaussian, Inc. is engaged in the
 business of creating and licensing software in the field of
 computational chemistry and represents and warrants to the
 licensee that it is not a competitor of Gaussian, Inc. and that
 it will not use this program in any manner prohibited above.
 ---------------------------------------------------------------
  

 Cite this work as:
 Gaussian 16, Revision A.03,
 M. J. Frisch, G. W. Trucks, H. B. Schlegel, G. E. Scuseria, 
 M. A. Robb, J. R. Cheeseman, G. Scalmani, V. Barone, 
 G. A. Petersson, H. Nakatsuji, X. Li, M. Caricato, A. V. Marenich, 
 J. Bloino, B. G. Janesko, R. Gomperts, B. Mennucci, H. P. Hratchian, 
 J. V. Ortiz, A. F. Izmaylov, J. L. Sonnenberg, D. Williams-Young, 
 F. Ding, F. Lipparini, F. Egidi, J. Goings, B. Peng, A. Petrone, 
 T. Henderson, D. Ranasinghe, V. G. Zakrzewski, J. Gao, N. Rega, 
 G. Zheng, W. Liang, M. Hada, M. Ehara, K. Toyota, R. Fukuda, 
 J. Hasegawa, M. Ishida, T. Nakajima, Y. Honda, O. Kitao, H. Nakai, 
 T. Vreven, K. Throssell, J. A. Montgomery, Jr., J. E. Peralta, 
 F. Ogliaro, M. J. Bearpark, J. J. Heyd, E. N. Brothers, K. N. Kudin, 
 V. N. Staroverov, T. A. Keith, R. Kobayashi, J. Normand, 
 K. Raghavachari, A. P. Rendell, J. C. Burant, S. S. Iyengar, 
 J. Tomasi, M. Cossi, J. M. Millam, M. Klene, C. Adamo, R. Cammi, 
 J. W. Ochterski, R. L. Martin, K. Morokuma, O. Farkas, 
 J. B. Foresman, and D. J. Fox, Gaussian, Inc., Wallingford CT, 2016.
 
 ******************************************
 Gaussian 16:  ES64L-G16RevA.03 25-Dec-2016
                 9-Mar-2024 
 ******************************************
 %nprocshared=28
 Will use up to   28 processors via shared memory.
 %mem=41GB
 ----------------------------
 # mp2/aug-cc-pVTZ Pop=ChelpG
 ----------------------------
 1/38=1,172=1/1;
 2/12=2,17=6,18=5,40=1/2;
 3/5=16,6=1,7=10,11=9,25=1,30=1/1,2,3;
 4//1;
 5/5=2,38=5/2;
 8/10=1/1;
 9/16=-3/6;
 6/7=2,8=2,9=2,10=2,15=8,20=3/1,2;
 99/5=1,9=1/99;
 -----------------
 Title: R = 0.9013
 -----------------
 Symbolic Z-matrix:
 Charge =  0 Multiplicity = 1
 O
 H                    1    R1
 H                    1    R2       2    A1
       Variables:
  R2                    0.9613                   
  A1                  104.1065                   
  R1                    0.9013                   
 
                          Input orientation:                          
 ---------------------------------------------------------------------
 Center     Atomic      Atomic             Coordinates (Angstroms)
 Number     Number       Type             X           Y           Z
 ---------------------------------------------------------------------
      1          8           0        0.000000    0.000000    0.000000
      2          1           0        0.000000    0.000000    0.901300
      3          1           0        0.932311    0.000000   -0.234293
 ---------------------------------------------------------------------
                    Distance matrix (angstroms):
                    1          2          3
     1  O    0.000000
     2  H    0.901300   0.000000
     3  H    0.961300   1.469277   0.000000
 Stoichiometry    H2O
 Framework group  CS[SG(H2O)]
 Deg. of freedom     3
 Full point group                 CS      NOp   2
 Largest Abelian subgroup         CS      NOp   2
 Largest concise Abelian subgroup C1      NOp   1
                         Standard orientation:                         
 ---------------------------------------------------------------------
 Center     Atomic      Atomic             Coordinates (Angstroms)
 Number     Number       Type             X           Y           Z
 ---------------------------------------------------------------------
      1          8           0        0.000000    0.114634    0.000000
      2          1           0        0.733020   -0.409793   -0.000000
      3          1           0       -0.733020   -0.507282    0.000000
 ---------------------------------------------------------------------
 Rotational constants (GHZ):         867.5883820         462.2054503         301.5535709
 Standard basis: Aug-CC-pVTZ (5D, 7F)
 There are    73 symmetry adapted cartesian basis functions of A'  symmetry.
 There are    32 symmetry adapted cartesian basis functions of A"  symmetry.
 There are    62 symmetry adapted basis functions of A'  symmetry.
 There are    30 symmetry adapted basis functions of A"  symmetry.
    92 basis functions,   126 primitive gaussians,   105 cartesian basis functions
     5 alpha electrons        5 beta electrons
       nuclear repulsion energy         9.4610209744 Hartrees.
 NAtoms=    3 NActive=    3 NUniq=    3 SFac= 1.00D+00 NAtFMM=   60 NAOKFM=F Big=F
 Integral buffers will be    131072 words long.
 Raffenetti 1 integral format.
 Two-electron integral symmetry is turned on.
 One-electron integrals computed using PRISM.
 NBasis=    92 RedAO= T EigKep=  3.40D-04  NBF=    62    30
 NBsUse=    92 1.00D-06 EigRej= -1.00D+00 NBFU=    62    30
 ExpMin= 2.53D-02 ExpMax= 1.53D+04 ExpMxC= 5.22D+02 IAcc=3 IRadAn=         5 AccDes= 0.00D+00
 Harris functional with IExCor=  205 and IRadAn=       5 diagonalized for initial guess.
 HarFok:  IExCor=  205 AccDes= 0.00D+00 IRadAn=         5 IDoV= 1 UseB2=F ITyADJ=14
 ICtDFT=  3500011 ScaDFX=  1.000000  1.000000  1.000000  1.000000
 FoFCou: FMM=F IPFlag=           0 FMFlag=      100000 FMFlg1=           0
         NFxFlg=           0 DoJE=T BraDBF=F KetDBF=T FulRan=T
         wScrn=  0.000000 ICntrl=       500 IOpCl=  0 I1Cent=   200000004 NGrid=           0
         NMat0=    1 NMatS0=      1 NMatT0=    0 NMatD0=    1 NMtDS0=    0 NMtDT0=    0
 Petite list used in FoFCou.
 Initial guess orbital symmetries:
       Occupied  (A') (A') (A') (A') (A")
       Virtual   (A') (A') (A') (A") (A') (A') (A') (A') (A") (A')
                 (A") (A') (A') (A') (A') (A') (A') (A") (A") (A')
                 (A") (A') (A") (A') (A") (A') (A') (A') (A') (A")
                 (A') (A') (A") (A') (A") (A') (A") (A') (A') (A')
                 (A') (A") (A") (A') (A') (A') (A") (A') (A") (A')
                 (A') (A') (A") (A') (A') (A") (A") (A') (A") (A')
                 (A') (A") (A") (A') (A') (A') (A') (A") (A') (A')
                 (A") (A') (A') (A') (A") (A') (A") (A") (A') (A")
                 (A') (A") (A') (A') (A') (A') (A')
 The electronic state of the initial guess is 1-A'.
 Keep R1 ints in memory in symmetry-blocked form, NReq=22811748.
 Requested convergence on RMS density matrix=1.00D-08 within 128 cycles.
 Requested convergence on MAX density matrix=1.00D-06.
 Requested convergence on             energy=1.00D-06.
 No special actions if energy rises.
 SCF Done:  E(RHF) =  -76.0586538314     A.U. after   10 cycles
            NFock= 10  Conv=0.28D-08     -V/T= 1.9998
 ExpMin= 2.53D-02 ExpMax= 1.53D+04 ExpMxC= 5.22D+02 IAcc=3 IRadAn=         5 AccDes= 0.00D+00
 HarFok:  IExCor=  205 AccDes= 0.00D+00 IRadAn=         5 IDoV=-2 UseB2=F ITyADJ=14
 ICtDFT= 12500011 ScaDFX=  1.000000  1.000000  1.000000  1.000000
 Range of M.O.s used for correlation:     2    92
 NBasis=    92 NAE=     5 NBE=     5 NFC=     1 NFV=     0
 NROrb=     91 NOA=     4 NOB=     4 NVA=    87 NVB=    87

 **** Warning!!: The largest alpha MO coefficient is  0.16784442D+02

 Fully in-core method, ICMem=    40034190.
 JobTyp=1 Pass  1 fully in-core, NPsUse= 28.
 Spin components of T(2) and E(2):
     alpha-alpha T2 =       0.7907340198D-02 E2=     -0.3232897136D-01
     alpha-beta  T2 =       0.4579023823D-01 E2=     -0.2016618819D+00
     beta-beta   T2 =       0.7907340198D-02 E2=     -0.3232897136D-01
 ANorm=    0.1030342137D+01
 E2 =    -0.2663198246D+00 EUMP2 =    -0.76324973656029D+02

 **********************************************************************

            Population analysis using the SCF density.

 **********************************************************************

 Orbital symmetries:
       Occupied  (A') (A') (A') (A') (A")
       Virtual   (A') (A') (A') (A") (A') (A') (A') (A') (A") (A")
                 (A') (A') (A') (A') (A') (A') (A') (A") (A") (A')
                 (A") (A') (A") (A') (A") (A') (A') (A') (A') (A")
                 (A') (A") (A') (A') (A") (A') (A") (A') (A') (A')
                 (A') (A") (A') (A") (A') (A") (A') (A') (A') (A")
                 (A') (A') (A") (A') (A') (A") (A") (A') (A") (A')
                 (A') (A") (A") (A') (A') (A') (A') (A") (A') (A')
                 (A") (A') (A') (A') (A") (A') (A") (A") (A') (A")
                 (A') (A") (A') (A') (A') (A') (A')
 The electronic state is 1-A'.
 Alpha  occ. eigenvalues --  -20.56245  -1.36874  -0.73177  -0.59043  -0.51280
 Alpha virt. eigenvalues --    0.02969   0.04782   0.13586   0.15719   0.17568
 Alpha virt. eigenvalues --    0.18308   0.22967   0.24648   0.26569   0.30169
 Alpha virt. eigenvalues --    0.31114   0.36703   0.44173   0.47280   0.60137
 Alpha virt. eigenvalues --    0.66215   0.70947   0.72290   0.73079   0.83946
 Alpha virt. eigenvalues --    0.84969   0.88629   0.91476   0.91812   0.92582
 Alpha virt. eigenvalues --    0.93475   0.96431   1.02724   1.06527   1.08549
 Alpha virt. eigenvalues --    1.11524   1.18337   1.18999   1.25314   1.51775
 Alpha virt. eigenvalues --    1.53036   1.60410   1.78933   1.84615   2.00750
 Alpha virt. eigenvalues --    2.15553   2.26582   2.31874   2.32496   2.42384
 Alpha virt. eigenvalues --    2.42752   2.43068   2.50822   2.66361   2.68876
 Alpha virt. eigenvalues --    2.79751   2.82985   2.89688   3.68481   3.79103
 Alpha virt. eigenvalues --    4.04282   4.12199   4.17086   4.30149   4.30364
 Alpha virt. eigenvalues --    4.37463   4.39258   4.43805   4.54024   4.75892
 Alpha virt. eigenvalues --    4.91711   5.17664   5.21300   5.30365   5.49761
 Alpha virt. eigenvalues --    5.62797   5.71965   6.23570   6.51602   6.72170
 Alpha virt. eigenvalues --    6.97116   7.13854   7.26263   7.31670   7.33097
 Alpha virt. eigenvalues --    7.39099   7.46743   7.65543   7.91569   8.09659
 Alpha virt. eigenvalues --    8.93949  16.73433
          Condensed to atoms (all electrons):
               1          2          3
     1  O    7.830615   0.278507   0.281513
     2  H    0.278507   0.550369   0.007549
     3  H    0.281513   0.007549   0.483878
 Mulliken charges:
               1
     1  O   -0.390635
     2  H    0.163574
     3  H    0.227060
 Sum of Mulliken charges =   0.00000
 Mulliken charges with hydrogens summed into heavy atoms:
               1
     1  O    0.000000
 Electronic spatial extent (au):  <R**2>=             19.1340
 Charge=              0.0000 electrons
 Dipole moment (field-independent basis, Debye):
    X=              0.0272    Y=             -1.9682    Z=             -0.0000  Tot=              1.9684
 Quadrupole moment (field-independent basis, Debye-Ang):
   XX=             -4.3273   YY=             -6.2035   ZZ=             -7.4958
   XY=              0.1597   XZ=             -0.0000   YZ=             -0.0000
[...]
 XXXX=             -6.2985 YYYY=             -7.6455 ZZZZ=             -6.8845 XXXY=              0.0121
 XXXZ=              0.0000 YYYX=             -0.0180 YYYZ=             -0.0000 ZZZX=              0.0000
 ZZZY=             -0.0000 XXYY=             -1.8836 XXZZ=             -2.5792 YYZZ=             -2.4894
 XXYZ=              0.0000 YYXZ=             -0.0000 ZZXY=              0.0712
 N-N= 8.763908477656D+00 E-N=-1.980584734154D+02  KE= 7.579313110489D+01
 Symmetry A'   KE= 7.131573949185D+01
 Symmetry A"   KE= 4.477391613036D+00
 Breneman (CHELPG) radii used.
 Generate Potential Derived Charges using the Breneman model, NDens= 1.
 Grid spacing= 0.300 Box extension= 2.800
 NStep X,Y,Z=   25     22     20   Total possible points=       11000
 Number of Points to Fit=    4040

 **********************************************************************

            Electrostatic Properties Using The SCF Density

 **********************************************************************

       Atomic Center    1 is at   0.000000  0.123964  0.000000
       Atomic Center    2 is at   0.790665 -0.568915 -0.000000
       Atomic Center    3 is at  -0.790665 -0.422796  0.000000
    4040 points will be used for fitting atomic charges
 Fitting point charges to electrostatic potential
 Charges from ESP fit, RMS=   0.00384 RRMS=   0.18059:
 ESP charges:
               1
     1  O   -0.700237
     2  H    0.344347
     3  H    0.355889
 Sum of ESP charges =  -0.00000
 ESP charges with hydrogens summed into heavy atoms:
               1
     1  O   -0.000000
 Charge=  -0.00000 Dipole=    -0.0438    -2.0806    -0.0000 Tot=     2.0811
 -----------------------------------------------------------------

              Electrostatic Properties (Atomic Units)

 -----------------------------------------------------------------
    Center     Electric         -------- Electric Field --------
               Potential          X             Y             Z
 -----------------------------------------------------------------
    1 Atom    -22.318508
    2 Atom     -0.979359
    3 Atom     -1.003234
 -----------------------------------------------------------------
 1\1\GINC-N2206\SP\RMP2-FC\Aug-CC-pVTZ\H2O1\GDS001\09-Mar-2024\0\\# mp2
 /aug-cc-pVTZ Pop=ChelpG\\Title: R = 1.0513\\0,1\O\H,1,1.0513\H,1,0.961
 3,2,104.1065\\Version=ES64L-G16RevA.03\State=1-A'\HF=-76.0502245\MP2=-
 76.3225575\RMSD=6.502e-09\PG=CS [SG(H2O1)]\\@


 THE WHOLE OF SCIENCE IS NOTHING MORE THAN A REFINEMENT OF EVERYDAY THINKING.
                                                              -- A. EINSTEIN
 Job cpu time:       0 days  0 hours  0 minutes 56.3 seconds.
 Elapsed time:       0 days  0 hours  0 minutes  2.3 seconds.
 File lengths (MBytes):  RWF=     72 Int=      0 D2E=      0 Chk=      8 Scr=      8
 Normal termination of Gaussian 16 at Sat Mar  9 10:58:52 2024.
 Initial command:
 /sw/contrib/gaussian/g16/A03/g16/l1.exe "/gscratch/scrubbed/gds001/Gau-12141.inp" -scrdir="/gscratch/scrubbed/gds001/"
 Entering Link 1 = /sw/contrib/gaussian/g16/A03/g16/l1.exe PID=     19568.
  
 Copyright (c) 1988,1990,1992,1993,1995,1998,2003,2009,2016,
            Gaussian, Inc.  All Rights Reserved.
  
 This is part of the Gaussian(R) 16 program.  It is based on
 the Gaussian(R) 09 system (copyright 2009, Gaussian, Inc.),
 the Gaussian(R) 03 system (copyright 2003, Gaussian, Inc.),
 the Gaussian(R) 98 system (copyright 1998, Gaussian, Inc.),
 the Gaussian(R) 94 system (copyright 1995, Gaussian, Inc.),
 the Gaussian 92(TM) system (copyright 1992, Gaussian, Inc.),
 the Gaussian 90(TM) system (copyright 1990, Gaussian, Inc.),
 the Gaussian 88(TM) system (copyright 1988, Gaussian, Inc.),
 the Gaussian 86(TM) system (copyright 1986, Carnegie Mellon
 University), and the Gaussian 82(TM) system (copyright 1983,
 Carnegie Mellon University). Gaussian is a federally registered
 trademark of Gaussian, Inc.
  
 This software contains proprietary and confidential information,
 including trade secrets, belonging to Gaussian, Inc.
  
 This software is provided under written license and may be
 used, copied, transmitted, or stored only in accord with that
 written license.
  
 The following legend is applicable only to US Government
 contracts under FAR:
  
                    RESTRICTED RIGHTS LEGEND
  
 Use, reproduction and disclosure by the US Government is
 subject to restrictions as set forth in subparagraphs (a)
 and (c) of the Commercial Computer Software - Restricted
 Rights clause in FAR 52.227-19.
  
 Gaussian, Inc.
 340 Quinnipiac St., Bldg. 40, Wallingford CT 06492
  
  
 ---------------------------------------------------------------
 Warning -- This program may not be used in any manner that
 competes with the business of Gaussian, Inc. or will provide
 assistance to any competitor of Gaussian, Inc.  The licensee
 of this program is prohibited from giving any competitor of
 Gaussian, Inc. access to this program.  By using this program,
 the user acknowledges that Gaussian, Inc. is engaged in the
 business of creating and licensing software in the field of
 computational chemistry and represents and warrants to the
 licensee that it is not a competitor of Gaussian, Inc. and that
 it will not use this program in any manner prohibited above.
 ---------------------------------------------------------------
  

 Cite this work as:
 Gaussian 16, Revision A.03,
 M. J. Frisch, G. W. Trucks, H. B. Schlegel, G. E. Scuseria, 
 M. A. Robb, J. R. Cheeseman, G. Scalmani, V. Barone, 
 G. A. Petersson, H. Nakatsuji, X. Li, M. Caricato, A. V. Marenich, 
 J. Bloino, B. G. Janesko, R. Gomperts, B. Mennucci, H. P. Hratchian, 
 J. V. Ortiz, A. F. Izmaylov, J. L. Sonnenberg, D. Williams-Young, 
 F. Ding, F. Lipparini, F. Egidi, J. Goings, B. Peng, A. Petrone, 
 T. Henderson, D. Ranasinghe, V. G. Zakrzewski, J. Gao, N. Rega, 
 G. Zheng, W. Liang, M. Hada, M. Ehara, K. Toyota, R. Fukuda, 
 J. Hasegawa, M. Ishida, T. Nakajima, Y. Honda, O. Kitao, H. Nakai, 
 T. Vreven, K. Throssell, J. A. Montgomery, Jr., J. E. Peralta, 
 F. Ogliaro, M. J. Bearpark, J. J. Heyd, E. N. Brothers, K. N. Kudin, 
 V. N. Staroverov, T. A. Keith, R. Kobayashi, J. Normand, 
 K. Raghavachari, A. P. Rendell, J. C. Burant, S. S. Iyengar, 
 J. Tomasi, M. Cossi, J. M. Millam, M. Klene, C. Adamo, R. Cammi, 
 J. W. Ochterski, R. L. Martin, K. Morokuma, O. Farkas, 
 J. B. Foresman, and D. J. Fox, Gaussian, Inc., Wallingford CT, 2016.
 
 ******************************************
 Gaussian 16:  ES64L-G16RevA.03 25-Dec-2016
                 9-Mar-2024 
 ******************************************
 %nprocshared=28
 Will use up to   28 processors via shared memory.
 %mem=41GB
 ----------------------------
 # mp2/aug-cc-pVTZ Pop=ChelpG
 ----------------------------
 1/38=1,172=1/1;
 2/12=2,17=6,18=5,40=1/2;
 3/5=16,6=1,7=10,11=9,25=1,30=1/1,2,3;
 4//1;
 5/5=2,38=5/2;
 8/10=1/1;
 9/16=-3/6;
 6/7=2,8=2,9=2,10=2,15=8,20=3/1,2;
 99/5=1,9=1/99;
 -----------------
 Title: R = 1.0613
 -----------------
 Symbolic Z-matrix:
 Charge =  0 Multiplicity = 1
 O
 H                    1    R1
 H                    1    R2       2    A1
       Variables:
  R2                    0.9613                   
  A1                  104.1065                   
  R1                    1.0613                   
 
                          Input orientation:                          
 ---------------------------------------------------------------------
 Center     Atomic      Atomic             Coordinates (Angstroms)
 Number     Number       Type             X           Y           Z
 ---------------------------------------------------------------------
      1          8           0        0.000000    0.000000    0.000000
      2          1           0        0.000000    0.000000    1.061300
      3          1           0        0.932311    0.000000   -0.234293
 ---------------------------------------------------------------------
                    Distance matrix (angstroms):
                    1          2          3
     1  O    0.000000
     2  H    1.061300   0.000000
     3  H    0.961300   1.596172   0.000000
 Stoichiometry    H2O
 Framework group  CS[SG(H2O)]
 Deg. of freedom     3
 Full point group                 CS      NOp   2
 Largest Abelian subgroup         CS      NOp   2
 Largest concise Abelian subgroup C1      NOp   1
                         Standard orientation:                         
 ---------------------------------------------------------------------
 Center     Atomic      Atomic             Coordinates (Angstroms)
 Number     Number       Type             X           Y           Z
 ---------------------------------------------------------------------
      1          8           0        0.000000    0.124625    0.000000
      2          1           0        0.793950   -0.579648    0.000000
      3          1           0       -0.793950   -0.417354   -0.000000
 ---------------------------------------------------------------------
 Rotational constants (GHZ):         743.4372458         389.0154845         255.3824920
 Standard basis: Aug-CC-pVTZ (5D, 7F)
 There are    73 symmetry adapted cartesian basis functions of A'  symmetry.
 There are    32 symmetry adapted cartesian basis functions of A"  symmetry.
 There are    62 symmetry adapted basis functions of A'  symmetry.
 There are    30 symmetry adapted basis functions of A"  symmetry.
    92 basis functions,   126 primitive gaussians,   105 cartesian basis functions
     5 alpha electrons        5 beta electrons
       nuclear repulsion energy         8.7242736891 Hartrees.
 NAtoms=    3 NActive=    3 NUniq=    3 SFac= 1.00D+00 NAtFMM=   60 NAOKFM=F Big=F
 Integral buffers will be    131072 words long.
 Raffenetti 1 integral format.
 Two-electron integral symmetry is turned on.
 One-electron integrals computed using PRISM.
 NBasis=    92 RedAO= T EigKep=  3.98D-04  NBF=    62    30
 NBsUse=    92 1.00D-06 EigRej= -1.00D+00 NBFU=    62    30
 ExpMin= 2.53D-02 ExpMax= 1.53D+04 ExpMxC= 5.22D+02 IAcc=3 IRadAn=         5 AccDes= 0.00D+00
 Harris functional with IExCor=  205 and IRadAn=       5 diagonalized for initial guess.
 HarFok:  IExCor=  205 AccDes= 0.00D+00 IRadAn=         5 IDoV= 1 UseB2=F ITyADJ=14
 ICtDFT=  3500011 ScaDFX=  1.000000  1.000000  1.000000  1.000000
 FoFCou: FMM=F IPFlag=           0 FMFlag=      100000 FMFlg1=           0
         NFxFlg=           0 DoJE=T BraDBF=F KetDBF=T FulRan=T
         wScrn=  0.000000 ICntrl=       500 IOpCl=  0 I1Cent=   200000004 NGrid=           0
         NMat0=    1 NMatS0=      1 NMatT0=    0 NMatD0=    1 NMtDS0=    0 NMtDT0=    0
 Petite list used in FoFCou.
 Initial guess orbital symmetries:
       Occupied  (A') (A') (A') (A') (A")
       Virtual   (A') (A') (A') (A") (A') (A') (A') (A') (A") (A')
                 (A") (A') (A') (A') (A') (A') (A') (A") (A") (A')
                 (A") (A') (A') (A") (A") (A') (A') (A') (A') (A")
                 (A') (A') (A") (A') (A") (A') (A") (A') (A') (A')
                 (A') (A") (A") (A') (A') (A") (A') (A') (A') (A")
                 (A') (A") (A') (A') (A') (A") (A") (A') (A') (A")
                 (A') (A") (A") (A') (A') (A') (A") (A') (A') (A')
                 (A") (A') (A') (A') (A") (A') (A") (A") (A') (A')
                 (A") (A") (A') (A') (A') (A') (A')
 The electronic state of the initial guess is 1-A'.
 Keep R1 ints in memory in symmetry-blocked form, NReq=22811572.
 Requested convergence on RMS density matrix=1.00D-08 within 128 cycles.
 Requested convergence on MAX density matrix=1.00D-06.
 Requested convergence on             energy=1.00D-06.
 No special actions if energy rises.
 SCF Done:  E(RHF) =  -76.0484747857     A.U. after   10 cycles
            NFock= 10  Conv=0.70D-08     -V/T= 2.0036
 ExpMin= 2.53D-02 ExpMax= 1.53D+04 ExpMxC= 5.22D+02 IAcc=3 IRadAn=         5 AccDes= 0.00D+00
 HarFok:  IExCor=  205 AccDes= 0.00D+00 IRadAn=         5 IDoV=-2 UseB2=F ITyADJ=14
 ICtDFT= 12500011 ScaDFX=  1.000000  1.000000  1.000000  1.000000
 Range of M.O.s used for correlation:     2    92
 NBasis=    92 NAE=     5 NBE=     5 NFC=     1 NFV=     0
 NROrb=     91 NOA=     4 NOB=     4 NVA=    87 NVB=    87

 **** Warning!!: The largest alpha MO coefficient is  0.13854000D+02

 Fully in-core method, ICMem=    40034190.
 JobTyp=1 Pass  1 fully in-core, NPsUse= 28.
 Spin components of T(2) and E(2):
     alpha-alpha T2 =       0.8576826433D-02 E2=     -0.3304832786D-01
     alpha-beta  T2 =       0.5031168852D-01 E2=     -0.2066402827D+00
     beta-beta   T2 =       0.8576826433D-02 E2=     -0.3304832786D-01
 ANorm=    0.1033182143D+01
 E2 =    -0.2727369385D+00 EUMP2 =    -0.76321211724182D+02

 **********************************************************************

            Population analysis using the SCF density.

 **********************************************************************

 Orbital symmetries:
       Occupied  (A') (A') (A') (A') (A")
       Virtual   (A') (A') (A') (A") (A') (A') (A') (A') (A") (A")
                 (A') (A') (A') (A') (A') (A') (A') (A") (A") (A')
                 (A") (A') (A') (A") (A") (A') (A') (A') (A') (A")
                 (A') (A') (A") (A') (A") (A') (A") (A') (A') (A')
                 (A') (A") (A") (A') (A') (A") (A') (A') (A") (A')
                 (A') (A') (A") (A') (A') (A") (A") (A') (A') (A")
                 (A") (A") (A') (A') (A') (A') (A") (A') (A') (A')
                 (A") (A') (A') (A') (A") (A') (A") (A") (A') (A")
                 (A') (A") (A') (A') (A') (A') (A')
 The electronic state is 1-A'.
 Alpha  occ. eigenvalues --  -20.57608  -1.32986  -0.68970  -0.57431  -0.50658
 Alpha virt. eigenvalues --    0.02853   0.04750   0.13518   0.16102   0.17184
 Alpha virt. eigenvalues --    0.18340   0.22194   0.24302   0.26516   0.29788
 Alpha virt. eigenvalues --    0.30822   0.36406   0.42167   0.46016   0.59636
 Alpha virt. eigenvalues --    0.65521   0.70664   0.72495   0.73427   0.81287
 Alpha virt. eigenvalues --    0.84143   0.89988   0.90051   0.91559   0.92449
 Alpha virt. eigenvalues --    0.92808   0.95714   0.99953   1.03884   1.07276
 Alpha virt. eigenvalues --    1.09711   1.16111   1.16362   1.28524   1.48480
 Alpha virt. eigenvalues --    1.54364   1.56264   1.77272   1.82831   1.89000
 Alpha virt. eigenvalues --    2.09367   2.25475   2.30728   2.32521   2.40163
 Alpha virt. eigenvalues --    2.41006   2.43212   2.51816   2.70390   2.71222
 Alpha virt. eigenvalues --    2.73190   2.82795   2.84991   3.52327   3.70020
 Alpha virt. eigenvalues --    3.97504   4.03866   4.10460   4.19896   4.25941
 Alpha virt. eigenvalues --    4.34978   4.37032   4.38314   4.45300   4.59425
 Alpha virt. eigenvalues --    4.73491   4.97305   4.98592   5.15771   5.23298
 Alpha virt. eigenvalues --    5.41425   5.57886   6.12546   6.53638   6.69704
 Alpha virt. eigenvalues --    6.81739   7.00806   7.20970   7.21215   7.27431
 Alpha virt. eigenvalues --    7.31775   7.35083   7.44094   7.79791   7.84840
 Alpha virt. eigenvalues --    8.49250  14.49203
          Condensed to atoms (all electrons):
               1          2          3
     1  O    7.989589   0.255118   0.254716
     2  H    0.255118   0.434806   0.032125
     3  H    0.254716   0.032125   0.491686
 Mulliken charges:
               1
     1  O   -0.499424
     2  H    0.277951
     3  H    0.221473
 Sum of Mulliken charges =  -0.00000
 Mulliken charges with hydrogens summed into heavy atoms:
               1
     1  O   -0.000000
 Electronic spatial extent (au):  <R**2>=             20.1959
 Charge=             -0.0000 electrons
 Dipole moment (field-independent basis, Debye):
    X=             -0.0445    Y=             -2.0340    Z=              0.0000  Tot=              2.0345
 Quadrupole moment (field-independent basis, Debye-Ang):
   XX=             -4.1561   YY=             -6.2280   ZZ=             -7.6774
   XY=             -0.2793   XZ=              0.0000   YZ=             -0.0000
 Traceless Quadrupole moment (field-independent basis, Debye-Ang):
   XX=              1.8644   YY=             -0.2075   ZZ=             -1.6569
   XY=             -0.2793   XZ=              0.0000   YZ=             -0.0000
 Octapole moment (field-independent basis, Debye-Ang**2):
  XXX=             -0.1481  YYY=             -1.1354  ZZZ=             -0.0000  XYY=              0.2237
  XXY=             -1.5653  XXZ=              0.0000  XZZ=             -0.0529  YZZ=             -0.2165
  YYZ=              0.0000  XYZ=             -0.0000
 Hexadecapole moment (field-independent basis, Debye-Ang**3):
 XXXX=             -6.3329 YYYY=             -7.6905 ZZZZ=             -6.9003 XXXY=              0.0138
 XXXZ=             -0.0000 YYYX=             -0.0212 YYYZ=             -0.0000 ZZZX=             -0.0000
 ZZZY=              0.0000 XXYY=             -1.8855 XXZZ=             -2.5931 YYZZ=             -2.5024
 XXYZ=             -0.0000 YYXZ=              0.0000 ZZXY=              0.0799
 N-N= 8.724273689150D+00 E-N=-1.979717696138D+02  KE= 7.577932219265D+01
 Symmetry A'   KE= 7.130042548057D+01
 Symmetry A"   KE= 4.478896712087D+00
 Breneman (CHELPG) radii used.
 Generate Potential Derived Charges using the Breneman model, NDens= 1.
 Grid spacing= 0.300 Box extension= 2.800
 NStep X,Y,Z=   25     23     20   Total possible points=       11500
 Number of Points to Fit=    4034

 **********************************************************************

            Electrostatic Properties Using The SCF Density

 **********************************************************************

       Atomic Center    1 is at   0.000000  0.124625  0.000000
       Atomic Center    2 is at   0.793950 -0.579648  0.000000
       Atomic Center    3 is at  -0.793950 -0.417354 -0.000000
    4034 points will be used for fitting atomic charges
 Fitting point charges to electrostatic potential
 Charges from ESP fit, RMS=   0.00387 RRMS=   0.18121:
 ESP charges:
               1
     1  O   -0.698818
     2  H    0.342675
     3  H    0.356143
 Sum of ESP charges =  -0.00000
 ESP charges with hydrogens summed into heavy atoms:
               1
     1  O   -0.000000
 Charge=  -0.00000 Dipole=    -0.0514    -2.0863    -0.0000 Tot=     2.0869
 -----------------------------------------------------------------

              Electrostatic Properties (Atomic Units)

 -----------------------------------------------------------------
    Center     Electric         -------- Electric Field --------
               Potential          X             Y             Z
 -----------------------------------------------------------------
    1 Atom    -22.317895
    2 Atom     -0.976643
    3 Atom     -1.003420
 -----------------------------------------------------------------
 1\1\GINC-N2206\SP\RMP2-FC\Aug-CC-pVTZ\H2O1\GDS001\09-Mar-2024\0\\# mp2
 /aug-cc-pVTZ Pop=ChelpG\\Title: R = 1.0613\\0,1\O\H,1,1.0613\H,1,0.961
 3,2,104.1065\\Version=ES64L-G16RevA.03\State=1-A'\HF=-76.0484748\MP2=-
 76.3212117\RMSD=7.000e-09\PG=CS [SG(H2O1)]\\@


 THE ENLIGHTENED ONE, BECAUSE HE SAW MANKIND DROWNING  
 IN THE GREAT SEA OF BIRTH, DEATH, AND SORROW, LONGED TO SAVE 
 THEM, FOR THIS HE WAS MOVED TO PITY.                         
 BECAUSE HE SAW MEN OF THE WORLD STRAYING IN FALSE PATHS, AND 
 NONE TO GUIDE THEM, FOR THIS HE WAS MOVED TO PITY.           
                     ..................                       
 BECAUSE HE SAW THE MEN OF THE WORLD PLOUGHING THEIR FIELDS,  
 SOWING THE SEED, TRAFFICKING, HUCKSTERING, BUYING, SELLING,  
 AND AT THE END WINNOWING NOTHING BUT BITTERNESS,             
 FOR THIS HE WAS MOVED TO PITY......                   
                   BUDAH'S PITY - UPSAKA SILA SUTRA           
 Job cpu time:       0 days  0 hours  1 minutes  3.0 seconds.
 Elapsed time:       0 days  0 hours  0 minutes  2.6 seconds.
 File lengths (MBytes):  RWF=     72 Int=      0 D2E=      0 Chk=      8 Scr=      8
 Normal termination of Gaussian 16 at Sat Mar  9 10:58:55 2024.
